(written by ASE)

81 atoms
1 atom types

0.0      13.610748849760078  xlo xhi
0.0       11.78725426840642  ylo yhi
0.0      8.4221905085005275  zlo zhi
     -6.805374424880041                       0                       0  xy xz yz

Masses

1 47.8670 # Ti


Atoms # atomic

     1   1     0.44041092769444523    0.013188937882263572     0.27252172352981574
     2   1      4.5521455569266793    0.013188937882263791   0.0094237169165784559
     3   1      9.0890618401800385     0.01318893788226403   0.0094237169165784559
     4   1     -2.2532288679533603      3.9422736940177368   0.0094237169165784559
     5   1      2.2836874152999993      3.9422736940177368   0.0094237169165784559
     6   1      6.8206036985533585      3.9422736940177372   0.0094237169165784559
     7   1     -4.5216870095800408      7.8713584501532079   0.0094237169165784559
     8   1    0.015229273673320153      7.8713584501532079   0.0094237169165784559
     9   1      4.5521455569266793      7.8713584501532079   0.0094237169165784559
    10   1    0.015229273673319743     0.01318893788226355      2.8168205530834216
    11   1      4.5521455569266793    0.013188937882263791      2.8168205530834216
    12   1      9.0890618401800385     0.01318893788226403      2.8168205530834216
    13   1     -2.2532288679533603      3.9422736940177368      2.8168205530834216
    14   1      2.2836874152999993      3.9422736940177368      2.8168205530834216
    15   1      6.8206036985533585      3.9422736940177372      2.8168205530834216
    16   1     -4.5216870095800408      7.8713584501532079      2.8168205530834216
    17   1    0.015229273673320153      7.8713584501532079      2.8168205530834216
    18   1      4.5521455569266793      7.8713584501532079      2.8168205530834216
    19   1    0.015229273673319743     0.01318893788226355      5.6242173892502629
    20   1      4.5521455569266793    0.013188937882263791      5.6242173892502629
    21   1      9.0890618401800385     0.01318893788226403      5.6242173892502629
    22   1     -2.2532288679533603      3.9422736940177368      5.6242173892502629
    23   1      2.2836874152999993      3.9422736940177368      5.6242173892502629
    24   1      6.8206036985533585      3.9422736940177372      5.6242173892502629
    25   1     -4.5216870095800408      7.8713584501532079      5.6242173892502629
    26   1    0.015229273673320153      7.8713584501532079      5.6242173892502629
    27   1      4.5521455569266793      7.8713584501532079      5.6242173892502629
    28   1    0.015229273673318399      2.6325787752701282      1.4131221350000001
    29   1      4.5521455569266775      2.6325787752701286      1.4131221350000001
    30   1      9.0890618401800385      2.6325787752701286      1.4131221350000001
    31   1     -2.2532288679533621      6.5616635314056024      1.4131221350000001
    32   1      2.2836874152999984      6.5616635314056024      1.4131221350000001
    33   1      6.8206036985533567      6.5616635314056024      1.4131221350000001
    34   1     -4.5216870095800425      10.490748287541075      1.4131221350000001
    35   1    0.015229273673317929      10.490748287541075      1.4131221350000001
    36   1      4.5521455569266758      10.490748287541075      1.4131221350000001
    37   1    0.015229273673318399      2.6325787752701282      4.2205189711668423
    38   1      4.5521455569266775      2.6325787752701286      4.2205189711668423
    39   1      9.0890618401800385      2.6325787752701286      4.2205189711668423
    40   1     -2.2532288679533621      6.5616635314056024      4.2205189711668423
    41   1      2.2836874152999984      6.5616635314056024      4.2205189711668423
    42   1      6.8206036985533567      6.5616635314056024      4.2205189711668423
    43   1     -4.5216870095800425      10.490748287541075      4.2205189711668423
    44   1    0.015229273673317929      10.490748287541075      4.2205189711668423
    45   1      4.5521455569266758      10.490748287541075      4.2205189711668423
    46   1    0.015229273673318399      2.6325787752701282      7.0279158073336863
    47   1      4.5521455569266775      2.6325787752701286      7.0279158073336863
    48   1      9.0890618401800385      2.6325787752701286      7.0279158073336863
    49   1     -2.2532288679533621      6.5616635314056024      7.0279158073336863
    50   1      2.2836874152999984      6.5616635314056024      7.0279158073336863
    51   1      6.8206036985533567      6.5616635314056024      7.0279158073336863
    52   1     -4.5216870095800425      10.490748287541075      7.0279158073336863
    53   1    0.015229273673317929      10.490748287541075      7.0279158073336863
    54   1      4.5521455569266758      10.490748287541075      7.0279158073336863
    55   1      2.2836874152999984      1.3228838566298728      1.4131221350000001
    56   1      6.8206036985533576      1.3228838566298731      1.4131221350000001
    57   1      11.357519981806716      1.3228838566298733      1.4131221350000001
    58   1    0.015229273673318467      5.2519686127653458      1.4131221350000001
    59   1      4.5521455569266775      5.2519686127653458      1.4131221350000001
    60   1      9.0890618401800385      5.2519686127653467      1.4131221350000001
    61   1     -2.2532288679533616      9.1810533689008196      1.4131221350000001
    62   1      2.2836874152999975      9.1810533689008196      1.4131221350000001
    63   1      6.8206036985533576      9.1810533689008196      1.4131221350000001
    64   1      2.2836874152999984      1.3228838566298728      4.2205189711668423
    65   1      6.8206036985533576      1.3228838566298731      4.2205189711668423
    66   1      11.357519981806716      1.3228838566298733      4.2205189711668423
    67   1    0.015229273673318467      5.2519686127653458      4.2205189711668423
    68   1      4.5521455569266775      5.2519686127653458      4.2205189711668423
    69   1      9.0890618401800385      5.2519686127653467      4.2205189711668423
    70   1     -2.2532288679533616      9.1810533689008196      4.2205189711668423
    71   1      2.2836874152999975      9.1810533689008196      4.2205189711668423
    72   1      6.8206036985533576      9.1810533689008196      4.2205189711668423
    73   1      2.2836874152999984      1.3228838566298728      7.0279158073336863
    74   1      6.8206036985533576      1.3228838566298731      7.0279158073336863
    75   1      11.357519981806716      1.3228838566298733      7.0279158073336863
    76   1    0.015229273673318467      5.2519686127653458      7.0279158073336863
    77   1      4.5521455569266775      5.2519686127653458      7.0279158073336863
    78   1      9.0890618401800385      5.2519686127653467      7.0279158073336863
    79   1     -2.2532288679533616      9.1810533689008196      7.0279158073336863
    80   1      2.2836874152999975      9.1810533689008196      7.0279158073336863
    81   1      6.8206036985533576      9.1810533689008196      7.0279158073336863
