(written by ASE)

54 atoms
1 atom types

0.0      8.5759383374072886  xlo xhi
0.0       7.426980461467398  ylo yhi
0.0      13.556992674300645  zlo zhi
    -4.2879691685575825                       0                       0  xy xz yz

Masses

1 196.9666 # Au


Atoms # atomic

     1   1    0.092002915886792505      1.6838192376881871      1.2751892012055146
     2   1      2.8971890177783353      1.6838192376881871      1.1906786854749374
     3   1      5.7558351302474318      1.6838192376881871      1.1906786854749374
     4   1     -1.3907801508766202      4.1594793915106525      1.1906786854749374
     5   1      1.4678659615924747      4.1594793915106525      1.1906786854749374
     6   1      4.3265120740615712      4.1594793915106525      1.1906786854749374
     7   1     -2.8201032070624805      6.6351395453331179      1.1906786854749374
     8   1    0.038542905406614307      6.6351395453331179      1.1906786854749374
     9   1      2.8971890178757098      6.6351395453331179      1.1906786854749374
    10   1    0.038542905309240497      1.6838192376881871      5.7096762435751511
    11   1      2.8971890177783353      1.6838192376881871      5.7096762435751511
    12   1      5.7558351302474318      1.6838192376881871      5.7096762435751511
    13   1     -1.3907801508766202      4.1594793915106525      5.7096762435751511
    14   1      1.4678659615924747      4.1594793915106525      5.7096762435751511
    15   1      4.3265120740615712      4.1594793915106525      5.7096762435751511
    16   1     -2.8201032070624805      6.6351395453331179      5.7096762435751511
    17   1    0.038542905406614307      6.6351395453331179      5.7096762435751511
    18   1      2.8971890178757098      6.6351395453331179      5.7096762435751511
    19   1    0.038542905309240497      1.6838192376881871      10.228673801675367
    20   1      2.8971890177783353      1.6838192376881871      10.228673801675367
    21   1      5.7558351302474318      1.6838192376881871      10.228673801675367
    22   1     -1.3907801508766202      4.1594793915106525      10.228673801675367
    23   1      1.4678659615924747      4.1594793915106525      10.228673801675367
    24   1      4.3265120740615712      4.1594793915106525      10.228673801675367
    25   1     -2.8201032070624805      6.6351395453331179      10.228673801675367
    26   1    0.038542905406614307      6.6351395453331179      10.228673801675367
    27   1      2.8971890178757098      6.6351395453331179      10.228673801675367
    28   1      1.4678659615075338     0.85859918641181421      3.4501774645250496
    29   1      4.3265120739766285      0.8585991864118141      3.4501774645250496
    30   1       7.185158186445725      0.8585991864118141      3.4501774645250496
    31   1    0.038542905321672212      3.3342593402342797      3.4501774645250496
    32   1      2.8971890177907689      3.3342593402342797      3.4501774645250496
    33   1      5.7558351302598654      3.3342593402342797      3.4501774645250496
    34   1     -1.3907801508641888      5.8099194940567465      3.4501774645250496
    35   1      1.4678659616049079      5.8099194940567465      3.4501774645250496
    36   1      4.3265120740740048      5.8099194940567465      3.4501774645250496
    37   1      1.4678659615075338     0.85859918641181421      7.9691750226252633
    38   1      4.3265120739766285      0.8585991864118141      7.9691750226252633
    39   1       7.185158186445725      0.8585991864118141      7.9691750226252633
    40   1    0.038542905321672212      3.3342593402342797      7.9691750226252633
    41   1      2.8971890177907689      3.3342593402342797      7.9691750226252633
    42   1      5.7558351302598654      3.3342593402342797      7.9691750226252633
    43   1     -1.3907801508641888      5.8099194940567465      7.9691750226252633
    44   1      1.4678659616049079      5.8099194940567465      7.9691750226252633
    45   1      4.3265120740740048      5.8099194940567465      7.9691750226252633
    46   1      1.4678659615075338     0.85859918641181421      12.488172580725475
    47   1      4.3265120739766285      0.8585991864118141      12.488172580725475
    48   1       7.185158186445725      0.8585991864118141      12.488172580725475
    49   1    0.038542905321672212      3.3342593402342797      12.488172580725475
    50   1      2.8971890177907689      3.3342593402342797      12.488172580725475
    51   1      5.7558351302598654      3.3342593402342797      12.488172580725475
    52   1     -1.3907801508641888      5.8099194940567465      12.488172580725475
    53   1      1.4678659616049079      5.8099194940567465      12.488172580725475
    54   1      4.3265120740740048      5.8099194940567465      12.488172580725475
