ITEM: TIMESTEP
0
ITEM: NUMBER OF ATOMS
81
ITEM: BOX BOUNDS xy xz yz pp pp pp
-6.8053744248800410e+00 1.3610748849760078e+01 -6.8053744248800410e+00
0.0000000000000000e+00 1.1787254268406420e+01 0.0000000000000000e+00
0.0000000000000000e+00 8.4221905085005275e+00 0.0000000000000000e+00
ITEM: ATOMS id type x y z fx fy fz
1 1 0.440411 0.0131889 0.272522 -3.3414 1.79856e-14 -3.78671
10 1 0.0152293 0.0131889 2.81682 -0.232371 -1.4988e-15 1.00353
28 1 0.0152293 2.63258 1.41312 -0.269663 0.245549 0.0585576
2 1 4.55215 0.0131889 0.00942372 -0.157801 -2.22045e-15 -0.019977
11 1 4.55215 0.0131889 2.81682 0.0491495 -1.83187e-15 -0.010765
29 1 4.55215 2.63258 1.41312 -0.383634 -0.221591 0.0189785
55 1 2.28369 1.32288 1.41312 2.07835 1.90048 0.817684
3 1 9.08906 0.0131889 0.00942372 0.1553 1.67921e-15 -0.0105782
12 1 9.08906 0.0131889 2.81682 0.033167 4.69069e-15 -0.00817294
30 1 9.08906 2.63258 1.41312 0.0141924 -0.0143518 0.00587503
56 1 6.8206 1.32288 1.41312 0.00600008 0.00466158 0.00178204
57 1 11.3575 1.32288 1.41312 0.0350346 0.0297907 -0.0345534
4 1 -2.25323 3.94227 0.00942372 -0.0176711 -0.0789807 -0.0268017
13 1 -2.25323 3.94227 2.81682 -0.00338387 -0.0368035 -0.0117023
31 1 -2.25323 6.56166 1.41312 -0.00442864 0.0142847 0.0037573
58 1 0.0152293 5.25197 1.41312 -0.00538795 0.00486599 0.0088723
5 1 2.28369 3.94227 0.00942372 -0.00733088 0.156224 -0.0482334
14 1 2.28369 3.94227 2.81682 -0.0202292 -0.0154447 -0.0150449
32 1 2.28369 6.56166 1.41312 -0.0109956 -0.0158484 0.000538533
59 1 4.55215 5.25197 1.41312 -0.00442864 -0.0142847 0.0037573
6 1 6.8206 3.94227 0.00942372 0.0161645 -0.0198507 -0.000118546
15 1 6.8206 3.94227 2.81682 -0.000457735 -0.000939493 5.24001e-05
33 1 6.8206 6.56166 1.41312 -0.00538795 -0.00486599 0.0088723
60 1 9.08906 5.25197 1.41312 -0.0109956 0.0158484 0.000538533
7 1 -4.52169 7.87136 0.00942372 -0.00733088 -0.156224 -0.0482334
16 1 -4.52169 7.87136 2.81682 -0.0202292 0.0154447 -0.0150449
34 1 -4.52169 10.4907 1.41312 2.07835 -1.90048 0.817684
8 1 0.0152293 7.87136 0.00942372 0.0161645 0.0198507 -0.000118546
17 1 0.0152293 7.87136 2.81682 -0.000457735 0.000939493 5.24001e-05
35 1 0.0152293 10.4907 1.41312 0.00600008 -0.00466158 0.00178204
61 1 -2.25323 9.18105 1.41312 -0.383634 0.221591 0.0189785
9 1 4.55215 7.87136 0.00942372 -0.0176711 0.0789807 -0.0268017
18 1 4.55215 7.87136 2.81682 -0.00338387 0.0368035 -0.0117023
36 1 4.55215 10.4907 1.41312 0.0350346 -0.0297907 -0.0345534
62 1 2.28369 9.18105 1.41312 0.0141924 0.0143518 0.00587503
63 1 6.8206 9.18105 1.41312 -0.269663 -0.245549 0.0585576
19 1 0.0152293 0.0131889 5.62422 0.0528353 -1.69309e-15 0.41778
37 1 0.0152293 2.63258 4.22052 -0.0230726 0.0578734 0.0450572
46 1 0.0152293 2.63258 7.02792 0.0686186 -0.0900432 0.150378
20 1 4.55215 0.0131889 5.62422 0.0481236 -3.71925e-15 0.0386605
38 1 4.55215 2.63258 4.22052 -0.0162628 -0.00788621 0.0159551
47 1 4.55215 2.63258 7.02792 0.0100952 0.00388021 -0.000363995
64 1 2.28369 1.32288 4.22052 0.160445 0.120193 0.157159
73 1 2.28369 1.32288 7.02792 0.177498 0.0212139 0.00296436
21 1 9.08906 0.0131889 5.62422 0.0223078 2.51188e-15 0.00641902
39 1 9.08906 2.63258 4.22052 0.00511504 -0.00205134 0.0124398
48 1 9.08906 2.63258 7.02792 0.0240536 -0.0116412 -0.00158685
65 1 6.8206 1.32288 4.22052 0.006282 -0.000191741 0.000794749
74 1 6.8206 1.32288 7.02792 -0.00763216 0.000277966 -0.00231742
66 1 11.3575 1.32288 4.22052 0.00839983 -0.0251536 -0.0316661
75 1 11.3575 1.32288 7.02792 -0.117133 0.0643441 0.0217576
22 1 -2.25323 3.94227 5.62422 -0.00224195 -0.022391 0.0177486
40 1 -2.25323 6.56166 4.22052 0.00219689 -0.00385192 -0.000767676
49 1 -2.25323 6.56166 7.02792 -0.00519705 0.0107471 -0.00188355
67 1 0.0152293 5.25197 4.22052 0.00228564 -0.00627024 -0.000924373
76 1 0.0152293 5.25197 7.02792 0.000434716 -0.00293842 0.000793297
23 1 2.28369 3.94227 5.62422 -0.0187773 0.0221383 0.0191501
41 1 2.28369 6.56166 4.22052 -5.96954e-05 2.19176e-05 -0.000112588
50 1 2.28369 6.56166 7.02792 -0.0162655 -0.0288657 0.000688353
68 1 4.55215 5.25197 4.22052 0.00219689 0.00385192 -0.000767676
77 1 4.55215 5.25197 7.02792 -0.00519705 -0.0107471 -0.00188355
24 1 6.8206 3.94227 5.62422 1.63758e-15 -1.02696e-15 2.1224e-14
42 1 6.8206 6.56166 4.22052 0.00228564 0.00627024 -0.000924373
51 1 6.8206 6.56166 7.02792 0.000434716 0.00293842 0.000793297
69 1 9.08906 5.25197 4.22052 -5.96954e-05 -2.19176e-05 -0.000112588
78 1 9.08906 5.25197 7.02792 -0.0162655 0.0288657 0.000688353
25 1 -4.52169 7.87136 5.62422 -0.0187773 -0.0221383 0.0191501
43 1 -4.52169 10.4907 4.22052 0.160445 -0.120193 0.157159
52 1 -4.52169 10.4907 7.02792 0.177498 -0.0212139 0.00296436
26 1 0.0152293 7.87136 5.62422 -1.13871e-14 1.90126e-14 2.13191e-14
44 1 0.0152293 10.4907 4.22052 0.006282 0.000191741 0.000794749
53 1 0.0152293 10.4907 7.02792 -0.00763216 -0.000277966 -0.00231742
70 1 -2.25323 9.18105 4.22052 -0.0162628 0.00788621 0.0159551
79 1 -2.25323 9.18105 7.02792 0.0100952 -0.00388021 -0.000363995
27 1 4.55215 7.87136 5.62422 -0.00224195 0.022391 0.0177486
45 1 4.55215 10.4907 4.22052 0.00839983 0.0251536 -0.0316661
54 1 4.55215 10.4907 7.02792 -0.117133 -0.0643441 0.0217576
71 1 2.28369 9.18105 4.22052 0.00511504 0.00205134 0.0124398
80 1 2.28369 9.18105 7.02792 0.0240536 0.0116412 -0.00158685
72 1 6.8206 9.18105 4.22052 -0.0230726 -0.0578734 0.0450572
81 1 6.8206 9.18105 7.02792 0.0686186 0.0900432 0.150378
