ITEM: TIMESTEP
0
ITEM: NUMBER OF ATOMS
54
ITEM: BOX BOUNDS xy xz yz pp pp pp
-4.2879691685575825e+00 8.5759383374072886e+00 -4.2879691685575825e+00
0.0000000000000000e+00 7.4269804614673980e+00 0.0000000000000000e+00
0.0000000000000000e+00 1.3556992674300645e+01 0.0000000000000000e+00
ITEM: ATOMS id type x y z fx fy fz
1 1 0.0920029 1.68382 1.27519 -1.6026 -0.0681685 -3.83076
2 1 2.89719 1.68382 1.19068 0.189726 0.100064 -0.0944836
28 1 1.46787 0.858599 3.45018 0.893362 -0.609256 1.35955
31 1 0.0385429 3.33426 3.45018 -0.164507 0.772177 1.02223
32 1 2.89719 3.33426 3.45018 -0.118368 -0.115637 -0.0829354
3 1 5.75584 1.68382 1.19068 0.555962 0.0256472 -0.0525355
29 1 4.32651 0.858599 3.45018 0.040425 -0.078733 0.0103143
30 1 7.18516 0.858599 3.45018 -0.349752 -0.081276 0.543829
33 1 5.75584 3.33426 3.45018 0.257729 -0.117453 0.00456797
4 1 -1.39078 4.15948 1.19068 0.0139771 -0.426292 -0.116986
7 1 -2.8201 6.63514 1.19068 -0.199541 -0.0511495 -0.137485
34 1 -1.39078 5.80992 3.45018 0.0379797 0.0055253 0.0485085
5 1 1.46787 4.15948 1.19068 -0.11113 -0.103693 -0.0185725
8 1 0.0385429 6.63514 1.19068 0.140966 0.0513349 0.0650103
9 1 2.89719 6.63514 1.19068 0.12476 0.459628 -0.00808388
35 1 1.46787 5.80992 3.45018 -0.127913 0.0768937 -0.0352331
6 1 4.32651 4.15948 1.19068 0.140778 -0.0562562 0.0666012
36 1 4.32651 5.80992 3.45018 0.0912215 0.134022 0.0157595
10 1 0.0385429 1.68382 5.70968 -0.0784198 0.0101312 0.069494
11 1 2.89719 1.68382 5.70968 0.0309363 0.0795685 0.0574874
37 1 1.46787 0.858599 7.96918 -0.00554501 0.00313025 -0.106262
40 1 0.0385429 3.33426 7.96918 -0.000123127 -0.0064341 -0.0945826
41 1 2.89719 3.33426 7.96918 0.0052187 0.00302024 0.00785938
12 1 5.75584 1.68382 5.70968 0.063663 0.0229607 -0.0283943
38 1 4.32651 0.858599 7.96918 1.90648e-06 -6.63386e-06 -3.41493e-05
39 1 7.18516 0.858599 7.96918 0.00556701 0.00328703 -0.0877491
42 1 5.75584 3.33426 7.96918 -0.00502969 0.00289773 -0.00173308
13 1 -1.39078 4.15948 5.70968 -0.0125599 -0.0124098 0.0367626
16 1 -2.8201 6.63514 5.70968 -0.0169872 -0.0743975 0.0908793
43 1 -1.39078 5.80992 7.96918 6.22778e-06 2.43942e-06 -2.51861e-05
14 1 1.46787 4.15948 5.70968 0.0345706 -0.081291 -0.0294231
17 1 0.0385429 6.63514 5.70968 -0.0518543 -0.0042119 -0.135912
18 1 2.89719 6.63514 5.70968 0.0859302 0.0514131 -0.0591846
44 1 1.46787 5.80992 7.96918 -5.22336e-06 3.99572e-06 -1.75593e-05
15 1 4.32651 4.15948 5.70968 -0.0166331 0.000968501 -0.057011
45 1 4.32651 5.80992 7.96918 -1.15852e-05 -0.00591726 0.00356803
19 1 0.0385429 1.68382 10.2287 -0.0328453 -0.00301111 -0.119353
20 1 2.89719 1.68382 10.2287 0.0286165 0.0304646 0.0286182
46 1 1.46787 0.858599 12.4882 -0.35438 0.084295 0.2813
49 1 0.0385429 3.33426 12.4882 -0.190718 -0.391736 0.420928
50 1 2.89719 3.33426 12.4882 -0.0591151 -0.036704 0.149539
21 1 5.75584 1.68382 10.2287 -0.00646853 0.0118054 -0.0173353
47 1 4.32651 0.858599 12.4882 0.183958 0.0817353 0.027228
48 1 7.18516 0.858599 12.4882 0.332779 0.317241 0.565264
51 1 5.75584 3.33426 12.4882 0.247322 -0.139269 0.0505992
22 1 -1.39078 4.15948 10.2287 -0.0222346 -0.0055441 0.00470688
25 1 -2.8201 6.63514 10.2287 -0.0172943 -0.0271098 0.0273323
52 1 -1.39078 5.80992 12.4882 -0.0874884 -0.141189 -0.00622083
23 1 1.46787 4.15948 10.2287 0.0377762 0.0245132 -0.000143455
26 1 0.0385429 6.63514 10.2287 0.0238644 -0.00329463 0.0265216
27 1 2.89719 6.63514 10.2287 -0.00620784 -0.0269134 -0.0256679
53 1 1.46787 5.80992 12.4882 0.0548444 0.0628335 0.069516
24 1 4.32651 4.15948 10.2287 -0.0150673 -0.00171085 -0.0578036
54 1 4.32651 5.80992 12.4882 0.0308555 0.253503 0.149953
