(written by ASE)

54 atoms
2 atom types

0.0      7.5005262869999996  xlo xhi
0.0      6.4956463061999994  ylo yhi
0.0      6.1241540684999993  zlo zhi
     3.7502631434999998      3.7502631434999998            2.1652154355  xy xz yz

Masses

1 12.0110 # C
2 26.9815 # Al


Atoms # atomic

     1   1      5.1003381300999999      2.8869465653999993      2.0413794933000005
     2   1       7.500513559099999      2.8869465653999993      2.0413794933000005
     3   1      10.000688988100002      2.8869465653999993      2.0413794933000005
     4   1      6.2504258446000005      5.0521620007999992      2.0413794933000005
     5   1      8.7506012735999992      5.0521620007999992      2.0413794933000005
     6   1      11.250776702600001      5.0521620007999992      2.0413794933000005
     7   1      7.5005135591000007      7.2173774361999996      2.0413794933000005
     8   1      10.000688988099999      7.2173774361999996      2.0413794933000005
     9   1      12.500864417100001      7.2173774361999996      2.0413794933000005
    10   1      6.2504258445999996      3.6086850439000004       4.082764182800001
    11   1      8.7506012735999992      3.6086850439000004       4.082764182800001
    12   1           11.2507767026      3.6086850439000004       4.082764182800001
    13   1      7.5005135590999981      5.7739004792999982       4.082764182800001
    14   1           10.0006889881      5.7739004792999982       4.082764182800001
    15   1      12.500864417099999      5.7739004792999982       4.082764182800001
    16   1      8.7506012735999992      7.9391159146999977       4.082764182800001
    17   1      11.250776702599998      7.9391159146999977       4.082764182800001
    18   1           13.7509521316      7.9391159146999977       4.082764182800001
    19   1      7.5005135591000007      4.3304235223999994      6.1241488723000019
    20   1           10.0006889881      4.3304235223999994      6.1241488723000019
    21   1      12.500864417100004      4.3304235223999994      6.1241488723000019
    22   1      8.7506012735999992      6.4956389577999998      6.1241488723000019
    23   1           11.2507767026      6.4956389577999998      6.1241488723000019
    24   1      13.750952131600002      6.4956389577999998      6.1241488723000019
    25   1      10.000688988100002      8.6608543931999993      6.1241488723000019
    26   1      12.500864417100001      8.6608543931999993      6.1241488723000019
    27   1      15.001039846099999      8.6608543931999993      6.1241488723000019
    28   1      1.2500756936999997     0.72173153830000014     0.51034126489999998
    29   1      3.7502511226999995     0.72173153830000014     0.51034126489999998
    30   1      6.2504265516999986     0.72173153830000014     0.51034126489999998
    31   1      2.5001634081999988      2.8869469736999998     0.51034126489999998
    32   1      5.0003388371999993      2.8869469736999998     0.51034126489999998
    33   1      7.5005142661999997      2.8869469736999998     0.51034126489999998
    34   1      3.7502511226999999      5.0521624091000001     0.51034126489999998
    35   1      6.2504265516999986      5.0521624091000001     0.51034126489999998
    36   1      8.7506019807000026      5.0521624091000001     0.51034126489999998
    37   1      2.5001634081999997      1.4434700168000001      2.5517259544000002
    38   1      5.0003388372000002      1.4434700168000001      2.5517259544000002
    39   1      7.5005142662000006      1.4434700168000001      2.5517259544000002
    40   1      3.7502511226999991      3.6086854521999987      2.5517259544000002
    41   1      6.2504265516999986      3.6086854521999987      2.5517259544000002
    42   1      8.7506019806999973      3.6086854521999987      2.5517259544000002
    43   1      5.0003388372000002            5.7739008876      2.5517259544000002
    44   1      7.5005142661999997            5.7739008876      2.5517259544000002
    45   1      10.000689695200002            5.7739008876      2.5517259544000002
    46   1      3.7502511226999995      2.1652084952999995      4.5931106439000011
    47   1      6.2504265516999986      2.1652084952999995      4.5931106439000011
    48   1      8.7506019806999991      2.1652084952999995      4.5931106439000011
    49   1      5.0003388372000002      4.3304239306999994      4.5931106439000011
    50   1      7.5005142661999988      4.3304239306999994      4.5931106439000011
    51   1           10.0006896952      4.3304239306999994      4.5931106439000011
    52   1      6.2504265517000004      6.4956393660999998      4.5931106439000011
    53   1      8.7506019806999991      6.4956393660999998      4.5931106439000011
    54   1           11.2507774097      6.4956393660999998      4.5931106439000011
