ITEM: TIMESTEP
0
ITEM: NUMBER OF ATOMS
54
ITEM: BOX BOUNDS xy xz yz pp pp pp
0.0000000000000000e+00 1.5001052573999999e+01 3.7502631434999998e+00
0.0000000000000000e+00 8.6608617416999998e+00 3.7502631434999998e+00
0.0000000000000000e+00 6.1241540684999993e+00 2.1652154355000000e+00
ITEM: ATOMS id type x y z fx fy fz
1 1 5.10034 2.88695 2.04138 -4.74349 -0.424928 -0.300469
2 1 7.50051 2.88695 2.04138 0.351728 0.0860016 0.0608123
3 1 10.0007 2.88695 2.04138 0.304897 -0.075707 -0.0535329
4 1 6.25043 5.05216 2.04138 0.00858952 0.0885657 -0.0282392
5 1 8.7506 5.05216 2.04138 0.00950512 0.000402876 -3.53103e-05
6 1 11.2508 5.05216 2.04138 0.0196356 -0.10886 0.0224531
7 1 7.50051 7.21738 2.04138 0.00664208 0.249167 -0.0890854
8 1 10.0007 7.21738 2.04138 0.0167947 -0.272856 0.0784436
9 1 12.5009 7.21738 2.04138 0.009341 -0.00241171 0.00315957
10 1 6.25043 3.60869 4.08276 0.00858952 0.00289771 0.0929136
11 1 8.7506 3.60869 4.08276 0.00950512 0.000101002 0.000391605
12 1 11.2508 3.60869 4.08276 0.0196356 -0.0151176 -0.110118
13 1 7.50051 5.7739 4.08276 0.0109592 0.000484946 0.000342908
14 1 10.0007 5.7739 4.08276 0.00836793 -0.000148032 -0.000104675
15 1 12.5009 5.7739 4.08276 0.0265757 0.00157328 0.00111247
16 1 8.7506 7.93912 4.08276 -0.00196905 0.0021751 -0.000207521
17 1 11.2508 7.93912 4.08276 0.0188979 0.0034647 -0.00500085
18 1 13.751 7.93912 4.08276 0.014403 -0.00767517 0.010535
19 1 7.50051 4.33042 6.12415 0.00664208 -0.000934867 0.264612
20 1 10.0007 4.33042 6.12415 0.0167947 -0.0169945 -0.283399
21 1 12.5009 4.33042 6.12415 0.009341 0.00217497 -0.00332697
22 1 8.7506 6.49564 6.12415 -0.00196905 0.000529382 0.00211988
23 1 11.2508 6.49564 6.12415 0.0188979 -0.00355995 0.0049335
24 1 13.751 6.49564 6.12415 0.014403 0.00737407 -0.0107479
25 1 10.0007 8.66085 6.12415 0.0100231 -0.00149405 -0.00105646
26 1 12.5009 8.66085 6.12415 0.026715 -5.58123e-05 -3.94656e-05
27 1 15.001 8.66085 6.12415 0.00915582 -0.00124157 -0.000877922
28 1 1.25008 0.721732 0.510341 0.00478371 0.000953731 0.00067439
29 1 3.75025 0.721732 0.510341 -0.0274362 -0.00727627 -0.0051451
30 1 6.25043 0.721732 0.510341 -0.0290117 0.010968 0.00775558
31 1 2.50016 2.88695 0.510341 -0.0226097 -0.0153195 0.00568381
32 1 5.00034 2.88695 0.510341 0.7124 0.0231476 0.0343061
33 1 7.50051 2.88695 0.510341 -0.0209227 0.00604584 -0.00509747
34 1 3.75025 5.05216 0.510341 -0.00794005 2.21076e-05 0.0136524
35 1 6.25043 5.05216 0.510341 -0.0094855 0.004486 -0.00781603
36 1 8.7506 5.05216 0.510341 -0.0214348 -0.00183692 0.00390046
37 1 2.50016 1.44347 2.55173 -0.0226097 0.000252236 -0.016338
38 1 5.00034 1.44347 2.55173 0.7124 0.04006 0.0103884
39 1 7.50051 1.44347 2.55173 -0.0209227 -0.00279066 0.00739923
40 1 3.75025 3.60869 2.55173 0.940992 -0.129535 -0.0915953
41 1 6.25043 3.60869 2.55173 1.56515 0.535591 0.37872
42 1 8.7506 3.60869 2.55173 0.0586714 -0.000985429 -0.000696803
43 1 5.00034 5.7739 2.55173 -0.0257086 0.00663163 0.0033493
44 1 7.50051 5.7739 2.55173 0.0316728 0.0255348 0.022312
45 1 10.0007 5.7739 2.55173 0.0238002 -0.0229702 -0.0174122
46 1 3.75025 2.16521 4.59311 -0.00794005 0.0128789 -0.00452994
47 1 6.25043 2.16521 4.59311 -0.0094855 -0.00587369 0.00683478
48 1 8.7506 2.16521 4.59311 -0.0214348 0.00306508 -0.00303201
49 1 5.00034 4.33042 4.59311 -0.0257086 0.0053683 0.00513592
50 1 7.50051 4.33042 4.59311 0.0316728 0.0295475 0.0166371
51 1 10.0007 4.33042 4.59311 0.0238002 -0.0240731 -0.0158524
52 1 6.25043 6.49564 4.59311 -0.00994566 -0.00803006 -0.00567811
53 1 8.7506 6.49564 4.59311 -0.0188857 -0.00265344 -0.00187626
54 1 11.2508 6.49564 4.59311 -0.0124728 0.00386309 0.00273162
