nqpoint: 404    
npath: 4      
segment_nqpoint:
- 101
- 101
- 101
- 101
labels:
- [ 'Gamma', 'X' ]
- [ 'X', 'K' ]
- [ 'K', 'Gamma' ]
- [ 'Gamma', 'L' ]
reciprocal_lattice:
- [   0.39997193,  -0.23092390,  -0.16328786 ] # a*
- [   0.00000000,   0.46184781,  -0.16328786 ] # b*
- [   0.00000000,   0.00000000,   0.48986357 ] # c*
natom: 2      
lattice:
- [     2.500175429000000,     0.000000000000000,     0.000000000000000 ] # a
- [     1.250087714500000,     2.165215435399999,     0.000000000000000 ] # b
- [     1.250087714500000,     0.721738478500000,     2.041384689500000 ] # c
points:
- symbol: C # 1
  coordinates: [  0.999997454617902,  0.999997454587760,  0.999997454570897 ]
  mass: 12.010700
- symbol: C # 2
  coordinates: [  0.249997596000766,  0.249997596026479,  0.249997596006757 ]
  mass: 12.010700

phonon:
- q-position: [    0.0000000,    0.0000000,    0.0000000 ]
  distance:    0.0000000
  band:
  - # 1
    frequency:   -0.0000002464
    eigenvector:
    - # atom 1
      - [  0.52134194818353, -0.00000000000000 ]
      - [ -0.43185757678732,  0.00000000000000 ]
      - [  0.20420971190404,  0.00000000000000 ]
    - # atom 2
      - [  0.52134194818206,  0.00000000000000 ]
      - [ -0.43185757678831,  0.00000000000000 ]
      - [  0.20420971190401,  0.00000000000000 ]
  - # 2
    frequency:    0.0000000248
    eigenvector:
    - # atom 1
      - [ -0.32823364234952,  0.00000000000000 ]
      - [ -0.10421654894825,  0.00000000000000 ]
      - [  0.61757719109122,  0.00000000000000 ]
    - # atom 2
      - [ -0.32823364234683,  0.00000000000000 ]
      - [ -0.10421654894681,  0.00000000000000 ]
      - [  0.61757719109154,  0.00000000000000 ]
  - # 3
    frequency:    0.0000002357
    eigenvector:
    - # atom 1
      - [  0.34708104110746,  0.00000000000000 ]
      - [  0.55012538961223,  0.00000000000000 ]
      - [  0.27730273458307,  0.00000000000000 ]
    - # atom 2
      - [  0.34708104110624,  0.00000000000000 ]
      - [  0.55012538961299,  0.00000000000000 ]
      - [  0.27730273458491,  0.00000000000000 ]
  - # 4
    frequency:   39.4696238712
    eigenvector:
    - # atom 1
      - [ -0.26116370410596,  0.00000000000000 ]
      - [ -0.37094080621905,  0.00000000000000 ]
      - [ -0.54239878128600,  0.00000000000000 ]
    - # atom 2
      - [  0.26116370410702,  0.00000000000000 ]
      - [  0.37094080621762,  0.00000000000000 ]
      - [  0.54239878128403,  0.00000000000000 ]
  - # 5
    frequency:   39.4696238714
    eigenvector:
    - # atom 1
      - [  0.58464283773530,  0.00000000000000 ]
      - [ -0.39761921789704,  0.00000000000000 ]
      - [ -0.00957652562499,  0.00000000000000 ]
    - # atom 2
      - [ -0.58464283773716,  0.00000000000000 ]
      - [  0.39761921789610,  0.00000000000000 ]
      - [  0.00957652562547,  0.00000000000000 ]
  - # 6
    frequency:   39.4696238715
    eigenvector:
    - # atom 1
      - [  0.29997711902809,  0.00000000000000 ]
      - [  0.45199765026072,  0.00000000000000 ]
      - [ -0.45355468492467,  0.00000000000000 ]
    - # atom 2
      - [ -0.29997711903046,  0.00000000000000 ]
      - [ -0.45199765026118,  0.00000000000000 ]
      - [  0.45355468492547,  0.00000000000000 ]

- q-position: [    0.0050000,    0.0000000,    0.0050000 ]
  distance:    0.0028282
  band:
  - # 1
    frequency:    0.5096181628
    eigenvector:
    - # atom 1
      - [ -0.50000000000845,  0.00000000000000 ]
      - [  0.28867513457555, -0.00000000003522 ]
      - [ -0.40824829046738, -0.00000000003972 ]
    - # atom 2
      - [ -0.50000000000758,  0.00000000444256 ]
      - [  0.28867513457587, -0.00000000259997 ]
      - [ -0.40824829046773,  0.00000000358754 ]
  - # 2
    frequency:    0.3330635708
    eigenvector:
    - # atom 1
      - [  0.35023443971201,  0.00000000000000 ]
      - [  0.15973055014316,  0.40984971266421 ]
      - [ -0.31600127872705,  0.28980751105301 ]
    - # atom 2
      - [  0.35202794489354,  0.00018634398910 ]
      - [  0.16076657946937,  0.40790341576765 ]
      - [ -0.31746528163971,  0.28820304747510 ]
  - # 3
    frequency:    0.3330635708
    eigenvector:
    - # atom 1
      - [  0.35684147353305, -0.00000000000000 ]
      - [  0.24771343611286, -0.40226121441953 ]
      - [ -0.26187991409585, -0.28444163250663 ]
    - # atom 2
      - [  0.35507218678444, -0.00018289999532 ]
      - [  0.24669139942808, -0.40444892193863 ]
      - [ -0.26043567829662, -0.28576456949829 ]
  - # 4
    frequency:   39.4689087004
    eigenvector:
    - # atom 1
      - [  0.00773063248595,  0.00000000000000 ]
      - [ -0.56189728478909, -0.11175559191427 ]
      - [ -0.40678951276014, -0.07902315264443 ]
    - # atom 2
      - [ -0.00724026473686, -0.00248460753495 ]
      - [  0.56217313304716,  0.11036488311981 ]
      - [  0.40638399154822,  0.08108278336102 ]
  - # 5
    frequency:   39.4703679702
    eigenvector:
    - # atom 1
      - [ -0.49999999157322,  0.00000000000000 ]
      - [  0.28867517798716,  0.00000000012279 ]
      - [ -0.40824827010124, -0.00000000011571 ]
    - # atom 2
      - [  0.49999999157444, -0.00000000427349 ]
      - [ -0.28867517798725,  0.00000000258892 ]
      - [  0.40824827010018, -0.00000000361471 ]
  - # 6
    frequency:   39.4689087006
    eigenvector:
    - # atom 1
      - [  0.49994024217507,  0.00000000000000 ]
      - [  0.29739835968626,  0.00172808947515 ]
      - [ -0.40200682888208,  0.00122194382760 ]
    - # atom 2
      - [ -0.49994140881021,  0.00003842437928 ]
      - [ -0.29739892086617,  0.00121841489796 ]
      - [  0.40200786089629,  0.00081448933400 ]

- q-position: [    0.0100000,    0.0000000,    0.0100000 ]
  distance:    0.0056565
  band:
  - # 1
    frequency:    1.0191255084
    eigenvector:
    - # atom 1
      - [ -0.50000000000803,  0.00000000000000 ]
      - [  0.28867513457604, -0.00000000001772 ]
      - [ -0.40824829046755, -0.00000000001983 ]
    - # atom 2
      - [ -0.50000000000717,  0.00000000888512 ]
      - [  0.28867513457636, -0.00000000514724 ]
      - [ -0.40824829046789,  0.00000000723469 ]
  - # 2
    frequency:    0.6660806708
    eigenvector:
    - # atom 1
      - [ -0.34984879769542,  0.00000000000000 ]
      - [ -0.12191846505442, -0.40463612542760 ]
      - [  0.34226614738730, -0.28612094817000 ]
    - # atom 2
      - [ -0.35338203501794, -0.00070268308691 ]
      - [ -0.12396249913187, -0.40092721252372 ]
      - [  0.34514811132221, -0.28263774319870 ]
  - # 3
    frequency:    0.6660806707
    eigenvector:
    - # atom 1
      - [ -0.35721956657651,  0.00000000000000 ]
      - [ -0.28465556870026,  0.39628697652390 ]
      - [  0.23622094918047,  0.28021720837390 ]
    - # atom 2
      - [ -0.35372329572608,  0.00068819655581 ]
      - [ -0.28263296206215,  0.40084404012152 ]
      - [  0.23336910825856,  0.28259667374477 ]
  - # 4
    frequency:   39.4667624707
    eigenvector:
    - # atom 1
      - [  0.00808570457858,  0.00000000000000 ]
      - [ -0.53155256859137, -0.21380680098547 ]
      - [ -0.38576736993237, -0.15118424638436 ]
    - # atom 2
      - [ -0.00620885994048, -0.00470602715991 ]
      - [  0.53260863411247,  0.21117340309749 ]
      - [  0.38421546517885,  0.15508583550885 ]
  - # 5
    frequency:   39.4725976574
    eigenvector:
    - # atom 1
      - [ -0.49999999789040,  0.00000000000000 ]
      - [  0.28867514544739,  0.00000000006142 ]
      - [ -0.40824828537341, -0.00000000005785 ]
    - # atom 2
      - [  0.49999999789162, -0.00000000880045 ]
      - [ -0.28867514544748,  0.00000000514176 ]
      - [  0.40824828537235, -0.00000000724827 ]
  - # 6
    frequency:   39.4667624709
    eigenvector:
    - # atom 1
      - [  0.49993461921435,  0.00000000000000 ]
      - [  0.29730997502310,  0.00345800949538 ]
      - [ -0.40206245598923,  0.00244518198428 ]
    - # atom 2
      - [ -0.49993929599753,  0.00007612201375 ]
      - [ -0.29731222978307,  0.00243620907682 ]
      - [  0.40206658949730,  0.00162942989205 ]

- q-position: [    0.0150000,    0.0000000,    0.0150000 ]
  distance:    0.0084847
  band:
  - # 1
    frequency:    1.5284112693
    eigenvector:
    - # atom 1
      - [ -0.50000000000835,  0.00000000000000 ]
      - [  0.28867513457576, -0.00000000001194 ]
      - [ -0.40824829046735, -0.00000000001319 ]
    - # atom 2
      - [ -0.50000000000749,  0.00000001332768 ]
      - [  0.28867513457607, -0.00000000770621 ]
      - [ -0.40824829046769,  0.00000001086859 ]
  - # 2
    frequency:    0.9990048252
    eigenvector:
    - # atom 1
      - [ -0.34829093515393,  0.00000000000000 ]
      - [ -0.08211928488115, -0.39678480997431 ]
      - [  0.36850043340303, -0.28056922977387 ]
    - # atom 2
      - [ -0.35347642663047, -0.00156681442687 ]
      - [ -0.08512689800076, -0.39152740648735 ]
      - [  0.37272463386445, -0.27493273618379 ]
  - # 3
    frequency:    0.9990048251
    eigenvector:
    - # atom 1
      - [ -0.35873865763717,  0.00000000000000 ]
      - [ -0.32261971856525,  0.38522905068816 ]
      - [  0.21123674036807,  0.27239807402831 ]
    - # atom 2
      - [ -0.35362359486372,  0.00152120189255 ]
      - [ -0.31965316812984,  0.39236235801718 ]
      - [  0.20706976140067,  0.27557899979767 ]
  - # 4
    frequency:   39.4631830344
    eigenvector:
    - # atom 1
      - [  0.00863226602862,  0.00000000000000 ]
      - [ -0.48780292457347, -0.30065790727481 ]
      - [ -0.35550108712367, -0.21259724976914 ]
    - # atom 2
      - [ -0.00467151736917, -0.00649014240540 ]
      - [  0.49003268387725,  0.29702762523583 ]
      - [  0.35222685844032,  0.21797902134725 ]
  - # 5
    frequency:   39.4763051136
    eigenvector:
    - # atom 1
      - [ -0.49999999906037,  0.00000000000000 ]
      - [  0.28867513942148,  0.00000000004097 ]
      - [ -0.40824828820145, -0.00000000003855 ]
    - # atom 2
      - [  0.49999999906159, -0.00000001327109 ]
      - [ -0.28867513942158,  0.00000000770262 ]
      - [  0.40824828820039, -0.00000001087765 ]
  - # 6
    frequency:   39.4631830346
    eigenvector:
    - # atom 1
      - [  0.49992547936744,  0.00000000000000 ]
      - [  0.29714111439448,  0.00519149186573 ]
      - [ -0.40217066754274,  0.00367093911661 ]
    - # atom 2
      - [ -0.49993603926475,  0.00011207935861 ]
      - [ -0.29714622703930,  0.00365269959874 ]
      - [  0.40217998553492,  0.00244558002248 ]

- q-position: [    0.0200000,    0.0000000,    0.0200000 ]
  distance:    0.0113129
  band:
  - # 1
    frequency:    2.0373647781
    eigenvector:
    - # atom 1
      - [ -0.50000000000827,  0.00000000000000 ]
      - [  0.28867513457588, -0.00000000000908 ]
      - [ -0.40824829046737, -0.00000000000985 ]
    - # atom 2
      - [ -0.50000000000740,  0.00000001777023 ]
      - [  0.28867513457619, -0.00000001026811 ]
      - [ -0.40824829046772,  0.00000001449918 ]
  - # 2
    frequency:    1.3317895521
    eigenvector:
    - # atom 1
      - [ -0.34658757858523,  0.00000000000000 ]
      - [ -0.04523504848047, -0.38624538065884 ]
      - [  0.39249534985158, -0.27311672783677 ]
    - # atom 2
      - [ -0.35330307100452, -0.00272121099930 ]
      - [ -0.04914413353790, -0.37961696812417 ]
      - [  0.39795597420063, -0.26509694317031 ]
  - # 3
    frequency:    1.3317895521
    eigenvector:
    - # atom 1
      - [ -0.36038458674621,  0.00000000000000 ]
      - [ -0.35700655938822,  0.37145831467253 ]
      - [  0.18893741528067,  0.26266069320978 ]
    - # atom 2
      - [ -0.35378338858040,  0.00261705646946 ]
      - [ -0.35316468259467,  0.38133605297290 ]
      - [  0.18356924881682,  0.26644008245664 ]
  - # 4
    frequency:   39.4581668244
    eigenvector:
    - # atom 1
      - [  0.00936290181826,  0.00000000000000 ]
      - [ -0.43766341904451, -0.37000841094525 ]
      - [ -0.32094194137830, -0.26163545974413 ]
    - # atom 2
      - [ -0.00285944037097, -0.00778530647184 ]
      - [  0.44132699928089,  0.36565673626792 ]
      - [  0.31556740275312,  0.26809337524372 ]
  - # 5
    frequency:   39.4814773357
    eigenvector:
    - # atom 1
      - [ -0.49999999946988,  0.00000000000000 ]
      - [  0.28867513731232,  0.00000000003076 ]
      - [ -0.40824828919131, -0.00000000002891 ]
    - # atom 2
      - [  0.49999999947110, -0.00000001772765 ]
      - [ -0.28867513731242,  0.00000001026548 ]
      - [  0.40824828919024, -0.00000001450598 ]
  - # 6
    frequency:   39.4581668246
    eigenvector:
    - # atom 1
      - [  0.49991232891137,  0.00000000000000 ]
      - [  0.29692279933926,  0.00692991998501 ]
      - [ -0.40230893470848,  0.00490019342497 ]
    - # atom 2
      - [ -0.49993118713343,  0.00014582949923 ]
      - [ -0.29693197872268,  0.00486785747646 ]
      - [  0.40232554041289,  0.00326349108981 ]

- q-position: [    0.0250000,    0.0000000,    0.0250000 ]
  distance:    0.0141411
  band:
  - # 1
    frequency:    2.5458755170
    eigenvector:
    - # atom 1
      - [  0.50000000000825, -0.00000000000000 ]
      - [ -0.28867513457590,  0.00000000000740 ]
      - [  0.40824829046737,  0.00000000000785 ]
    - # atom 2
      - [  0.50000000000739, -0.00000002221279 ]
      - [ -0.28867513457621,  0.00000001283118 ]
      - [  0.40824829046772, -0.00000001812845 ]
  - # 2
    frequency:    1.6643883589
    eigenvector:
    - # atom 1
      - [ -0.34512567382581,  0.00000000000000 ]
      - [ -0.01285797514433, -0.37386170399562 ]
      - [  0.41359893760090, -0.26436014609364 ]
    - # atom 2
      - [ -0.35323260208132, -0.00409738537791 ]
      - [ -0.01759858345263, -0.36599161478369 ]
      - [  0.42017574012486, -0.25377690091625 ]
  - # 3
    frequency:    1.6643883588
    eigenvector:
    - # atom 1
      - [ -0.36178483835022, -0.00000000000000 ]
      - [ -0.38669378902964,  0.35664643411012 ]
      - [  0.16966032486211,  0.25218711202241 ]
    - # atom 2
      - [ -0.35382857710734,  0.00390874310431 ]
      - [ -0.38204293356643,  0.36939178572155 ]
      - [  0.16320458614732,  0.25641222350590 ]
  - # 4
    frequency:   39.4517088733
    eigenvector:
    - # atom 1
      - [  0.01023049868904,  0.00000000000000 ]
      - [ -0.38579852476691, -0.42398218206570 ]
      - [ -0.28533050605077, -0.29980067844068 ]
    - # atom 2
      - [ -0.00090734737693, -0.00861035006891 ]
      - [  0.39105506699339,  0.41917422236369 ]
      - [  0.27762896095016,  0.30694641961934 ]
  - # 5
    frequency:   39.4880961815
    eigenvector:
    - # atom 1
      - [ -0.49999999965937,  0.00000000000000 ]
      - [  0.28867513633608,  0.00000000002463 ]
      - [ -0.40824828964954, -0.00000000002312 ]
    - # atom 2
      - [  0.49999999966058, -0.00000002217857 ]
      - [ -0.28867513633618,  0.00000001282914 ]
      - [  0.40824828964847, -0.00000001813389 ]
  - # 6
    frequency:   39.4517088735
    eigenvector:
    - # atom 1
      - [ -0.49989532627855,  0.00000000000000 ]
      - [ -0.29663105769553, -0.00867691482987 ]
      - [  0.40249440380789, -0.00613550532447 ]
    - # atom 2
      - [  0.49992500225031, -0.00017623548420 ]
      - [  0.29664560812978, -0.00607903960132 ]
      - [ -0.40252046058931, -0.00408268661144 ]

- q-position: [    0.0300000,    0.0000000,    0.0300000 ]
  distance:    0.0169694
  band:
  - # 1
    frequency:    3.0538331684
    eigenvector:
    - # atom 1
      - [  0.50000000000823, -0.00000000000000 ]
      - [ -0.28867513457594,  0.00000000000630 ]
      - [  0.40824829046738,  0.00000000000650 ]
    - # atom 2
      - [  0.50000000000736, -0.00000002665535 ]
      - [ -0.28867513457625,  0.00000001539484 ]
      - [  0.40824829046772, -0.00000002175705 ]
  - # 2
    frequency:    1.9967547388
    eigenvector:
    - # atom 1
      - [ -0.34408169598361,  0.00000000000000 ]
      - [  0.01562527822639, -0.35994545177576 ]
      - [  0.43246103269769, -0.25451986978165 ]
    - # atom 2
      - [ -0.35342567662664, -0.00565781832149 ]
      - [  0.01013089442261, -0.35093124149068 ]
      - [  0.44001990902461, -0.24121647659009 ]
  - # 3
    frequency:    1.9967547387
    eigenvector:
    - # atom 1
      - [ -0.36277787485304,  0.00000000000000 ]
      - [ -0.41268762485545,  0.34139524512552 ]
      - [  0.15249612364810,  0.24140289287089 ]
    - # atom 2
      - [ -0.35359508381701,  0.00536627280734 ]
      - [ -0.40729143737952,  0.35710639932580 ]
      - [  0.14506522817994,  0.24594004144796 ]
  - # 4
    frequency:   39.4438028390
    eigenvector:
    - # atom 1
      - [  0.01120919153316,  0.00000000000000 ]
      - [ -0.33557327972455, -0.46494202221238 ]
      - [ -0.25101454286569, -0.32876365859490 ]
    - # atom 2
      - [  0.00107226843877, -0.00903129524091 ]
      - [  0.34250499790587,  0.45990626046299 ]
      - [  0.24087435268337,  0.33626386984161 ]
  - # 5
    frequency:   39.4961384302
    eigenvector:
    - # atom 1
      - [ -0.49999999976231,  0.00000000000000 ]
      - [  0.28867513580577,  0.00000000002055 ]
      - [ -0.40824828989845, -0.00000000001925 ]
    - # atom 2
      - [  0.49999999976352, -0.00000002662668 ]
      - [ -0.28867513580588,  0.00000001539320 ]
      - [  0.40824828989738, -0.00000002176159 ]
  - # 6
    frequency:   39.4438028392
    eigenvector:
    - # atom 1
      - [ -0.49987433846998,  0.00000000000000 ]
      - [ -0.29627260613719, -0.01042586863900 ]
      - [  0.40272216289196, -0.00737220242154 ]
    - # atom 2
      - [  0.49991723831141, -0.00020254461171 ]
      - [  0.29629380832665, -0.00729404623490 ]
      - [ -0.40275971203871, -0.00490960407362 ]

- q-position: [    0.0350000,    0.0000000,    0.0350000 ]
  distance:    0.0197976
  band:
  - # 1
    frequency:    3.5611276653
    eigenvector:
    - # atom 1
      - [  0.50000000000820, -0.00000000000000 ]
      - [ -0.28867513457600,  0.00000000000554 ]
      - [  0.40824829046737,  0.00000000000554 ]
    - # atom 2
      - [  0.50000000000734, -0.00000003109791 ]
      - [ -0.28867513457630,  0.00000001795884 ]
      - [  0.40824829046772, -0.00000002538528 ]
  - # 2
    frequency:    2.3288421688
    eigenvector:
    - # atom 1
      - [ -0.34289544881963,  0.00000000000000 ]
      - [  0.04066682005589, -0.34585504319201 ]
      - [  0.44871522660346, -0.24455644632371 ]
    - # atom 2
      - [ -0.35334412885330, -0.00735956079008 ]
      - [  0.03448289019865, -0.33578487715779 ]
      - [  0.45713949515319, -0.22842217930041 ]
  - # 3
    frequency:    2.3288421688
    eigenvector:
    - # atom 1
      - [ -0.36389931460866, -0.00000000000000 ]
      - [ -0.43496106876767,  0.32589267279044 ]
      - [  0.13811989800936,  0.23044091884771 ]
    - # atom 2
      - [ -0.35361797432079,  0.00693481778561 ]
      - [ -0.42888248838180,  0.34465333944877 ]
      - [  0.12982608463305,  0.23521333094553 ]
  - # 4
    frequency:   39.4344410385
    eigenvector:
    - # atom 1
      - [  0.01228617995207,  0.00000000000000 ]
      - [ -0.28817803631189, -0.49593026430185 ]
      - [ -0.21882008040438, -0.35067565431972 ]
    - # atom 2
      - [  0.00301609994459, -0.00910617119742 ]
      - [  0.29682556031110,  0.49086344884516 ]
      - [  0.20619341444093,  0.35824561122313 ]
  - # 5
    frequency:   39.5055758609
    eigenvector:
    - # atom 1
      - [ -0.49999999982441,  0.00000000000000 ]
      - [  0.28867513548594,  0.00000000001764 ]
      - [ -0.40824829004855, -0.00000000001649 ]
    - # atom 2
      - [  0.49999999982562, -0.00000003107318 ]
      - [ -0.28867513548605,  0.00000001795750 ]
      - [  0.40824829004748, -0.00000002538917 ]
  - # 6
    frequency:   39.4344410387
    eigenvector:
    - # atom 1
      - [ -0.49984902716291,  0.00000000000000 ]
      - [ -0.29584567913131, -0.01218985763380 ]
      - [  0.40299304614066, -0.00861953100077 ]
    - # atom 2
      - [  0.49990792237265, -0.00022385881172 ]
      - [  0.29587507841743, -0.00850090916886 ]
      - [ -0.40304438931009, -0.00573688058199 ]

- q-position: [    0.0400000,    0.0000000,    0.0400000 ]
  distance:    0.0226258
  band:
  - # 1
    frequency:    4.0676492414
    eigenvector:
    - # atom 1
      - [  0.50000000000820, -0.00000000000000 ]
      - [ -0.28867513457604,  0.00000000000498 ]
      - [  0.40824829046734,  0.00000000000481 ]
    - # atom 2
      - [  0.50000000000734, -0.00000003554047 ]
      - [ -0.28867513457633,  0.00000002052304 ]
      - [  0.40824829046770, -0.00000002901327 ]
  - # 2
    frequency:    2.6606041071
    eigenvector:
    - # atom 1
      - [ -0.34198316646990,  0.00000000000000 ]
      - [  0.06179451091209, -0.33195186644579 ]
      - [  0.46253744694729, -0.23472541576765 ]
    - # atom 2
      - [ -0.35341450565386, -0.00914916830200 ]
      - [  0.05497924663327, -0.32086578458183 ]
      - [  0.47171880140101, -0.21568097514995 ]
  - # 3
    frequency:    2.6606041070
    eigenvector:
    - # atom 1
      - [ -0.36475678725021, -0.00000000000000 ]
      - [ -0.45364543056345,  0.31122642366930 ]
      - [  0.12595824430363,  0.22007031464036 ]
    - # atom 2
      - [ -0.35346979789970,  0.00857798788423 ]
      - [ -0.44692695152228,  0.33308467002459 ]
      - [  0.11688524407385,  0.22502058219610 ]
  - # 4
    frequency:   39.4236144886
    eigenvector:
    - # atom 1
      - [  0.01344775449435,  0.00000000000000 ]
      - [ -0.24453303947546, -0.51907454287773 ]
      - [ -0.18938103934540, -0.36704113036325 ]
    - # atom 2
      - [  0.00488288595815, -0.00890421117633 ]
      - [  0.25490668790730,  0.51413527739882 ]
      - [  0.17426595861400,  0.37445392922082 ]
  - # 5
    frequency:   39.5163753467
    eigenvector:
    - # atom 1
      - [ -0.49999999986473,  0.00000000000000 ]
      - [  0.28867513527842,  0.00000000001547 ]
      - [ -0.40824829014591, -0.00000000001442 ]
    - # atom 2
      - [  0.49999999986594, -0.00000003551867 ]
      - [ -0.28867513527854,  0.00000002052193 ]
      - [  0.40824829014483, -0.00000002901667 ]
  - # 6
    frequency:   39.4236144888
    eigenvector:
    - # atom 1
      - [ -0.49981912531661,  0.00000000000000 ]
      - [ -0.29535882162726, -0.01396582617755 ]
      - [  0.40330068435506, -0.00987533040055 ]
    - # atom 2
      - [  0.49989680452409, -0.00023960550114 ]
      - [  0.29539803002360, -0.00970397462553 ]
      - [ -0.40336809704102, -0.00656829064822 ]

- q-position: [    0.0450000,    0.0000000,    0.0450000 ]
  distance:    0.0254541
  band:
  - # 1
    frequency:    4.5732884830
    eigenvector:
    - # atom 1
      - [  0.50000000000817, -0.00000000000000 ]
      - [ -0.28867513457610,  0.00000000000457 ]
      - [  0.40824829046733,  0.00000000000423 ]
    - # atom 2
      - [  0.50000000000731, -0.00000003998303 ]
      - [ -0.28867513457639,  0.00000002308738 ]
      - [  0.40824829046768, -0.00000003264110 ]
  - # 2
    frequency:    2.9919939915
    eigenvector:
    - # atom 1
      - [ -0.34116232505612,  0.00000000000000 ]
      - [  0.08030795198731, -0.31821565923947 ]
      - [  0.47462310536102, -0.22501245050545 ]
    - # atom 2
      - [ -0.35345599713384, -0.01102562026435 ]
      - [  0.07291773734370, -0.30615780627351 ]
      - [  0.48445404630204, -0.20298268903443 ]
  - # 3
    frequency:    2.9919939914
    eigenvector:
    - # atom 1
      - [ -0.36552464753584, -0.00000000000000 ]
      - [ -0.46983320022093,  0.29700649438909 ]
      - [  0.11545219555498,  0.21001530621913 ]
    - # atom 2
      - [ -0.35332901511573,  0.01029081414919 ]
      - [ -0.46251907842822,  0.32201423882558 ]
      - [  0.10568752241454,  0.21509483004187 ]
  - # 4
    frequency:   39.4113129526
    eigenvector:
    - # atom 1
      - [  0.01468017445951,  0.00000000000000 ]
      - [ -0.20446467745109, -0.53637899521975 ]
      - [ -0.16255782869282, -0.37927722574926 ]
    - # atom 2
      - [  0.00666380779108, -0.00846732840622 ]
      - [  0.21656309337041,  0.53170298378277 ]
      - [  0.14497176783488,  0.38634110339295 ]
  - # 5
    frequency:   39.5284989656
    eigenvector:
    - # atom 1
      - [ -0.49999999989235,  0.00000000000000 ]
      - [  0.28867513513610,  0.00000000001377 ]
      - [ -0.40824829021272, -0.00000000001281 ]
    - # atom 2
      - [  0.49999999989356, -0.00000003996349 ]
      - [ -0.28867513513622,  0.00000002308646 ]
      - [  0.40824829021164, -0.00000003264413 ]
  - # 6
    frequency:   39.4113129529
    eigenvector:
    - # atom 1
      - [ -0.49978444611995,  0.00000000000000 ]
      - [ -0.29480538223253, -0.01575506659721 ]
      - [  0.40364955200753, -0.01114051443394 ]
    - # atom 2
      - [  0.49988382274974, -0.00024875091474 ]
      - [  0.29485615987807, -0.01090297948478 ]
      - [ -0.40373535780564, -0.00740491431703 ]

- q-position: [    0.0500000,    0.0000000,    0.0500000 ]
  distance:    0.0282823
  band:
  - # 1
    frequency:    5.0779363794
    eigenvector:
    - # atom 1
      - [  0.50000000000814, -0.00000000000000 ]
      - [ -0.28867513457618,  0.00000000000425 ]
      - [  0.40824829046731,  0.00000000000377 ]
    - # atom 2
      - [  0.50000000000728, -0.00000004442558 ]
      - [ -0.28867513457647,  0.00000002565182 ]
      - [  0.40824829046767, -0.00000003626882 ]
  - # 2
    frequency:    3.3229652387
    eigenvector:
    - # atom 1
      - [ -0.34022633618359,  0.00000000000000 ]
      - [  0.09625791868649, -0.30549736333376 ]
      - [  0.48475508740083, -0.21601925722648 ]
    - # atom 2
      - [ -0.35330196396349, -0.01295322571569 ]
      - [  0.08832625131653, -0.29250059021546 ]
      - [  0.49516085968328, -0.19096475405812 ]
  - # 3
    frequency:    3.3229652386
    eigenvector:
    - # atom 1
      - [ -0.36639601548191, -0.00000000000000 ]
      - [ -0.48332143039649,  0.28367734432352 ]
      - [  0.10698177995599,  0.20059017382108 ]
    - # atom 2
      - [ -0.35336278924145,  0.01202810763291 ]
      - [ -0.47544155632958,  0.31187156209711 ]
      - [  0.09659131534929,  0.20579513326432 ]
  - # 4
    frequency:   39.3975249956
    eigenvector:
    - # atom 1
      - [  0.01597909972971,  0.00000000000000 ]
      - [ -0.16781222538303, -0.54922720363589 ]
      - [ -0.13823148322973, -0.38836228088720 ]
    - # atom 2
      - [  0.00834850999912, -0.00783502686645 ]
      - [  0.18162650921259,  0.54492891436764 ]
      - [  0.11820454175469,  0.39491884036981 ]
  - # 5
    frequency:   39.5419041254
    eigenvector:
    - # atom 1
      - [ -0.49999999991211,  0.00000000000000 ]
      - [  0.28867513503428,  0.00000000001242 ]
      - [ -0.40824829026051, -0.00000000001152 ]
    - # atom 2
      - [  0.49999999991332, -0.00000004440784 ]
      - [ -0.28867513503441,  0.00000002565106 ]
      - [  0.40824829025943, -0.00000003627155 ]
  - # 6
    frequency:   39.3975249958
    eigenvector:
    - # atom 1
      - [ -0.49974460323014,  0.00000000000000 ]
      - [ -0.29418838107759, -0.01756128272395 ]
      - [  0.40403704038457, -0.01241770210504 ]
    - # atom 2
      - [  0.49986883483609, -0.00025056572342 ]
      - [  0.29425270891264, -0.01209541843219 ]
      - [ -0.40414370575636, -0.00824587330571 ]

- q-position: [    0.0550000,    0.0000000,    0.0550000 ]
  distance:    0.0311105
  band:
  - # 1
    frequency:    5.5814843753
    eigenvector:
    - # atom 1
      - [  0.50000000000810, -0.00000000000000 ]
      - [ -0.28867513457626,  0.00000000000401 ]
      - [  0.40824829046730,  0.00000000000339 ]
    - # atom 2
      - [  0.50000000000725, -0.00000004886814 ]
      - [ -0.28867513457654,  0.00000002821633 ]
      - [  0.40824829046766, -0.00000003989646 ]
  - # 2
    frequency:    3.6534712438
    eigenvector:
    - # atom 1
      - [ -0.33968441930023,  0.00000000000000 ]
      - [  0.10971830282555, -0.29317371639299 ]
      - [  0.49360930637803, -0.20730512290675 ]
    - # atom 2
      - [ -0.35344400024446, -0.01491617323216 ]
      - [  0.10128879747858, -0.27923084472318 ]
      - [  0.50450072218131, -0.17917751713328 ]
  - # 3
    frequency:    3.6534712437
    eigenvector:
    - # atom 1
      - [ -0.36689848088896, -0.00000000000000 ]
      - [ -0.49497933279211,  0.27142806197355 ]
      - [  0.09935379004902,  0.19192862320746 ]
    - # atom 2
      - [ -0.35307808523221,  0.01380985831625 ]
      - [ -0.48655071599474,  0.30282962586825 ]
      - [  0.08838726344263,  0.19721932883107 ]
  - # 4
    frequency:   39.3822380443
    eigenvector:
    - # atom 1
      - [  0.01733565274598,  0.00000000000000 ]
      - [ -0.13405503714951, -0.55872914741972 ]
      - [ -0.11602297778317, -0.39508116964793 ]
    - # atom 2
      - [  0.00994222245567, -0.00702628615512 ]
      - [  0.14957534138919,  0.55491309119484 ]
      - [  0.09358905240196,  0.40098821834713 ]
  - # 5
    frequency:   39.5565437040
    eigenvector:
    - # atom 1
      - [ -0.49999999992675,  0.00000000000000 ]
      - [  0.28867513495893,  0.00000000001132 ]
      - [ -0.40824829029586, -0.00000000001046 ]
    - # atom 2
      - [  0.49999999992795, -0.00000004885185 ]
      - [ -0.28867513495907,  0.00000002821570 ]
      - [  0.40824829029477, -0.00000003989894 ]
  - # 6
    frequency:   39.3822380445
    eigenvector:
    - # atom 1
      - [ -0.49969938484558,  0.00000000000000 ]
      - [ -0.29349945883169, -0.01938352292961 ]
      - [  0.40446880102980, -0.01370622051109 ]
    - # atom 2
      - [  0.49985170215608, -0.00024380590349 ]
      - [  0.29357946600550, -0.01328314964268 ]
      - [ -0.40459877725744, -0.00909400515402 ]

- q-position: [    0.0600000,    0.0000000,    0.0600000 ]
  distance:    0.0339387
  band:
  - # 1
    frequency:    6.0838244223
    eigenvector:
    - # atom 1
      - [  0.50000000000807, -0.00000000000000 ]
      - [ -0.28867513457634,  0.00000000000382 ]
      - [  0.40824829046728,  0.00000000000307 ]
    - # atom 2
      - [  0.50000000000721, -0.00000005331070 ]
      - [ -0.28867513457661,  0.00000003078089 ]
      - [  0.40824829046765, -0.00000004352404 ]
  - # 2
    frequency:    3.9834653815
    eigenvector:
    - # atom 1
      - [ -0.33903522327382,  0.00000000000000 ]
      - [  0.12146601885848, -0.28187322238854 ]
      - [  0.50112109654341, -0.19931446696638 ]