  54   54
1 1
    47.361799771472135    -0.000000000007001    -0.000000000003688
    -0.000000000007001    47.361799771496791    -0.000000000013941
    -0.000000000003688    -0.000000000013941    47.361799771471738
1 2
    -3.444198174176296    -0.839252521117730    -0.593441148804380
     0.839252521109573     0.926915542169547     0.622603484196225
     0.593441148795381     0.622603484198778     0.486668396450171
1 3
    -3.444198174114145     0.839252521098683     0.593441148785839
    -0.839252521086065     0.926915542163845     0.622603484200046
    -0.593441148762125     0.622603484186349     0.486668396434247
1 4
    -0.165862886944096    -1.053495239475211     0.242469859413356
    -2.732000281688364    -2.351419745076055    -0.825236852610489
     0.835911008234951     0.202633368422914     0.486668396472518
1 5
    -0.044627995683435    -0.000000000013164    -0.000000000008611
    -0.000000000012789    -0.044627995677264    -0.000000000000222
    -0.000000000007318    -0.000000000005220    -0.135528956693595
1 6
    -0.165862886936978     1.053495239464883    -0.242469859422671
     2.732000281726238    -2.351419745129152    -0.825236852620273
    -0.835911008242808     0.202633368441134     0.486668396476526
1 7
    -0.165862886938056    -2.732000281691476     0.835911008225799
    -1.053495239499862    -2.351419745135492     0.202633368432859
     0.242469859423053    -0.825236852581068     0.486668396465786
1 8
    -0.165862886934159     2.732000281677904    -0.835911008228459
     1.053495239486785    -2.351419745123406     0.202633368434716
    -0.242469859424631    -0.825236852593620     0.486668396468750
1 9
    -0.044627995681117     0.000000000005493     0.000000000000753
     0.000000000001477    -0.044627995685627     0.000000000002285
     0.000000000005175     0.000000000002062    -0.135528956693223
1 10
    -0.165862886939338    -0.122562304071869    -1.074068123509396
    -0.122562304088125    -0.024340128448217    -0.620113520260450
    -2.854391569921930    -1.647983741295548    -1.840411220161302
1 11
    -0.044627995697249    -0.000000000002294    -0.000000000001703
    -0.000000000005818    -0.125428849902195     0.028567415966080
     0.000000000002255     0.028567415965072    -0.054728102459916
1 12
    -0.165862886938782     0.122562304068442     1.074068123506216
     0.122562304062834    -0.024340128449831    -0.620113520251449
     2.854391569860139    -1.647983741257086    -1.840411220110112
1 13
    -0.105228636367785     0.034987796202367     0.024740107953950
     0.034987796199492    -0.064828209220244    -0.014283707999083
     0.024740107953956    -0.014283708000902    -0.054728102467662
1 14
    -0.105228636348769    -0.034987796209003    -0.024740107956838
    -0.034987796211291    -0.064828209231629    -0.014283707990045
    -0.024740107955298    -0.014283707988882    -0.054728102477974
1 15
    -0.023408322955965    -0.000000000000193    -0.000000000001939
    -0.000000000002670    -0.096830600758081    -0.051917390531453
    -0.000000000001122    -0.051917390527011    -0.060119461841889
1 16
     0.046421250791938     0.000000000001220     0.000000000000078
    -0.000000000006446    -0.236624266179343     1.240227040491599
    -0.000000000003757     3.295967482515485    -1.840411220230476
1 17
    -0.078475031299131     0.031792778894018    -0.044961779091799
     0.031792778892981    -0.041763892395097     0.025958695259170
    -0.044961779090970     0.025958695258531    -0.060119461862706
1 18
    -0.078475031318031    -0.031792778893546     0.044961779092846
    -0.031792778895235    -0.041763892395080     0.025958695256659
     0.044961779093503     0.025958695253965    -0.060119461847732
1 19
    -0.165862886943111    -0.122562304096644    -2.854391569916419
    -0.122562304077318    -0.024340128457288    -1.647983741319001
    -1.074068123509708    -0.620113520256973    -1.840411220158037
1 20
    -0.165862886921655     0.122562304069425     2.854391569852456
     0.122562304051223    -0.024340128456138    -1.647983741269647
     1.074068123494867    -0.620113520254886    -1.840411220129906
1 21
    -0.044627995696844     0.000000000000488    -0.000000000000107
    -0.000000000003460    -0.125428849891365     0.028567415965435
    -0.000000000000387     0.028567415964168    -0.054728102468869
1 22
     0.046421250778000    -0.000000000001511    -0.000000000003830
    -0.000000000003809    -0.236624266121579     3.295967482499996
    -0.000000000000773     1.240227040438052    -1.840411220216831
1 23
    -0.078475031315293    -0.031792778897257     0.044961779090775
    -0.031792778897976    -0.041763892384491     0.025958695252776
     0.044961779092139     0.025958695252869    -0.060119461862715
1 24
    -0.078475031314338     0.031792778890239    -0.044961779096839
     0.031792778892177    -0.041763892398865     0.025958695253941
    -0.044961779092520     0.025958695252471    -0.060119461841461
1 25
    -0.105228636347490     0.034987796204581     0.024740107949369
     0.034987796201296    -0.064828209239469    -0.014283707987381
     0.024740107951835    -0.014283707987257    -0.054728102472371
1 26
    -0.023408322965430    -0.000000000004001    -0.000000000004698
    -0.000000000004123    -0.096830600750470    -0.051917390533602
    -0.000000000005172    -0.051917390533740    -0.060119461839763
1 27
    -0.105228636364803    -0.034987796202463    -0.024740107952159
    -0.034987796201172    -0.064828209241032    -0.014283707991844
    -0.024740107948263    -0.014283707995752    -0.054728102453620
1 28
     0.068112771471344    -0.000000000005372    -0.000000000003451
    -0.000000000005446     0.068112771498504    -0.000000000011741
    -0.000000000001788    -0.000000000010460     0.068112771472146
1 29
     0.251312993086713     0.059214190289208     0.041870755493112
     0.059214190286564     0.120690926063809    -0.036623986557715
     0.041870755493126    -0.036623986555241     0.146587995290315
1 30
     0.251312993089103    -0.059214190295149    -0.041870755497915
    -0.059214190293803     0.120690926064263    -0.036623986553501
    -0.041870755496720    -0.036623986555954     0.146587995288270
1 31
     0.204627435864685     0.086168109306173    -0.010781924998851
     0.086168109309178     0.167376483291066     0.054573131201653
    -0.010781924998362     0.054573131197802     0.146587995286212
1 32
    -7.053121952847180     0.000000000051471     0.000000000116102
     0.000000000048350    -7.053121952996440     0.000000000117470
     0.000000000055493     0.000000000020702   -15.262766779719396
1 33
     0.204627435859563    -0.086168109315235     0.010781924988580
    -0.086168109320154     0.167376483292077     0.054573131196605
     0.010781924992302     0.054573131197591     0.146587995289461
1 34
     0.102065449766867     0.026953919023021    -0.052652680491751
     0.026953919023399     0.269938469394654    -0.017949144662523
    -0.052652680489398    -0.017949144665602     0.146587995282656
1 35
     0.102065449764488    -0.026953919029587     0.052652680486898
    -0.026953919034838     0.269938469388024    -0.017949144661996
     0.052652680489632    -0.017949144664283     0.146587995291969
1 36
     0.000938720523881     0.000000000002576     0.000000000002253
     0.000000000003263     0.000938720529907    -0.000000000003213
     0.000000000006840    -0.000000000003551     0.199664303390614
1 37
     0.204627435851349     0.018557406733101     0.084834047554147
     0.018557406729969     0.183199188323085     0.048978960183710
     0.084834047552887     0.048978960181593     0.130765290264281
1 38
    -7.053121952932731    -0.000000000001528    -0.000000000003841
    -0.000000000004029   -14.350584021122140     2.580042456996020
     0.000000000000121     2.580042456994590    -7.965304711502485
1 39
     0.204627435854773    -0.018557406743740    -0.084834047563251
    -0.018557406745140     0.183199188330032     0.048978960180352
    -0.084834047562976     0.048978960178266     0.130765290255211
1 40
   -12.526218504169520     3.159893767173454     2.234382310536222
     3.159893767199532    -8.877487470137446    -1.290021228429153
     2.234382310452255    -1.290021228371664    -7.965304711263584
1 41
   -12.526218503936551    -3.159893767048108    -2.234382310449975
    -3.159893767078079    -8.877487470070935    -1.290021228370378
    -2.234382310410460    -1.290021228339782    -7.965304711405807
1 42
    -0.623191042799150    -0.000000000005998    -0.000000000002616
    -0.000000000004393    -0.147070223697409    -0.214212066213744
     0.000000000002289    -0.214212066207038     0.004400580939567
1 43
     0.172485064535519    -0.000000000002479    -0.000000000004141
    -0.000000000004753     0.215341559656095    -0.097957920401522
    -0.000000000002095    -0.097957920399046     0.130765290251244
1 44
    -0.266100428463312    -0.206166362291846    -0.185513091123556
    -0.206166362294551    -0.504160838013190     0.107106033105997
    -0.185513091118964     0.107106033110797     0.004400580920388
1 45
    -0.266100428479591     0.206166362300731     0.185513091127411
     0.206166362300687    -0.504160838020167     0.107106033099505
     0.185513091124907     0.107106033096461     0.004400580932639
1 46
     0.102065449764013    -0.040656783554448     0.042963292057755
    -0.040656783556552     0.149011859625170     0.024804868233355
     0.042963292062599     0.024804868231125     0.267514605049573
1 47
     0.102065449751772     0.040656783543309    -0.042963292068553
     0.040656783543620     0.149011859618591     0.024804868232155
    -0.042963292066633     0.024804868228919     0.267514605072531
1 48
     0.000938720522603     0.000000000003290     0.000000000001919
     0.000000000003816     0.177583683093813    -0.062453425450416
    -0.000000000000025    -0.062453425452345     0.023019340827726
1 49
     0.172485064535218    -0.000000000002751    -0.000000000004032
    -0.000000000004862     0.078592244855444    -0.049609736484536
    -0.000000000000079    -0.049609736483433     0.267514605057887
1 50
    -0.266100428464029    -0.243625540424577    -0.132537813407847
    -0.243625540431632     0.015214114212727    -0.076520742252180
    -0.132537813405604    -0.076520742257494    -0.514974371304241
1 51
    -0.266100428481493     0.243625540417857     0.132537813401892
     0.243625540418335     0.015214114219316    -0.076520742256206
     0.132537813397182    -0.076520742256324    -0.514974371281953
1 52
     0.133422442446694    -0.076489512522014    -0.054086252995842
    -0.076489512525185     0.045099961168961     0.031226712719309
    -0.054086252994051     0.031226712715442     0.023019340825161
1 53
     0.155871385552119    -0.000000000010331    -0.000000000003574
    -0.000000000005444    -0.406757699813449     0.153041484495694
    -0.000000000003246     0.153041484493151    -0.514974371307240
1 54
     0.133422442433080     0.076489512514590     0.054086252985003
     0.076489512509597     0.045099961162872     0.031226712714089
     0.054086252983983     0.031226712715814     0.023019340847278
2 1
    -3.444198174176296     0.839252521109573     0.593441148795381
    -0.839252521117730     0.926915542169547     0.622603484198778
    -0.593441148804380     0.622603484196225     0.486668396450171
2 2
    47.361799771479767    -0.000000000001156    -0.000000000005311
    -0.000000000001156    47.361799771492990    -0.000000000007732
    -0.000000000005311    -0.000000000007732    47.361799771473216
2 3
    -3.444198174130884    -0.839252521107002    -0.593441148792891
     0.839252521157482     0.926915542175843     0.622603484214254
     0.593441148812429     0.622603484198004     0.486668396441949
2 4
    -0.165862886946958     1.053495239472660    -0.242469859423967
     2.732000281675781    -2.351419745079119    -0.825236852605843
    -0.835911008253967     0.202633368429397     0.486668396472211
2 5
    -0.165862886946154    -1.053495239487898     0.242469859404182
    -2.732000281738244    -2.351419745130238    -0.825236852609580
     0.835911008259207     0.202633368455382     0.486668396475053
2 6
    -0.044627995691979    -0.000000000000779     0.000000000000922
    -0.000000000003337    -0.044627995684651     0.000000000000632
    -0.000000000001208    -0.000000000005828    -0.135528956675952
2 7
    -0.044627995680163    -0.000000000012894    -0.000000000003983
    -0.000000000009931    -0.044627995684637     0.000000000001850
    -0.000000000011678    -0.000000000002687    -0.135528956690276
2 8
    -0.165862886920480    -2.732000281625472     0.835911008228160
    -1.053495239477343    -2.351419745090747     0.202633368428488
     0.242469859435225    -0.825236852553199     0.486668396457655
2 9
    -0.165862886927931     2.732000281681271    -0.835911008230676
     1.053495239489368    -2.351419745130477     0.202633368440029
    -0.242469859428965    -0.825236852584642     0.486668396468320
2 10
    -0.165862886935507     0.122562304069667     1.074068123504574
     0.122562304083347    -0.024340128450116    -0.620113520256069
     2.854391569912567    -1.647983741293721    -1.840411220160548
2 11
    -0.165862886937464    -0.122562304067519    -1.074068123508632
    -0.122562304063272    -0.024340128450541    -0.620113520248209
    -2.854391569864481    -1.647983741255348    -1.840411220108526
2 12
    -0.044627995690904     0.000000000003217    -0.000000000000713
     0.000000000005380    -0.125428849905282     0.028567415971603
    -0.000000000006597     0.028567415966989    -0.054728102459995
2 13
    -0.023408322962744     0.000000000003840     0.000000000003589
     0.000000000002179    -0.096830600735365    -0.051917390533758
    -0.000000000001442    -0.051917390537966    -0.060119461854285
2 14
    -0.105228636344119     0.034987796194472     0.024740107948311
     0.034987796194150    -0.064828209232894    -0.014283707985217
     0.024740107944380    -0.014283707986794    -0.054728102477036
2 15
    -0.105228636353042    -0.034987796198666    -0.024740107952211
    -0.034987796200674    -0.064828209246228    -0.014283707987281
    -0.024740107955753    -0.014283707987002    -0.054728102453977
2 16
    -0.078475031298509    -0.031792778896675     0.044961779090465
    -0.031792778895741    -0.041763892399373     0.025958695264321
     0.044961779086214     0.025958695263693    -0.060119461858975
2 17
     0.046421250798743    -0.000000000011168     0.000000000003125
     0.000000000003898    -0.236624266166585     1.240227040489625
    -0.000000000001394     3.295967482513279    -1.840411220228156
2 18
    -0.078475031313966     0.031792778890346    -0.044961779092585
     0.031792778891219    -0.041763892396860     0.025958695260869
    -0.044961779095552     0.025958695255714    -0.060119461846864
2 19
    -0.044627995686445    -0.000000000008681    -0.000000000005598
    -0.000000000011441    -0.125428849902696     0.028567415968732
    -0.000000000009004     0.028567415967713    -0.054728102468166
2 20
    -0.165862886932264    -0.122562304093347    -2.854391569915656
    -0.122562304068447    -0.024340128460006    -1.647983741312187
    -1.074068123515253    -0.620113520254451    -1.840411220162330
2 21
    -0.165862886942653     0.122562304088836     2.854391569932913
     0.122562304066305    -0.024340128454309    -1.647983741274245
     1.074068123500656    -0.620113520255788    -1.840411220157405
2 22
    -0.078475031313704     0.031792778891558    -0.044961779095543
     0.031792778890217    -0.041763892385712     0.025958695248373
    -0.044961779097546     0.025958695245748    -0.060119461858308
2 23
     0.046421250784601    -0.000000000006857     0.000000000004655
    -0.000000000003815    -0.236624266127109     3.295967482512343
    -0.000000000004928     1.240227040447393    -1.840411220225757
2 24
    -0.078475031310506    -0.031792778888580     0.044961779091752
    -0.031792778887488    -0.041763892400763     0.025958695258322
     0.044961779089726     0.025958695254298    -0.060119461840707
2 25
    -0.105228636342890    -0.034987796194023    -0.024740107952409
    -0.034987796197361    -0.064828209240773    -0.014283707982580
    -0.024740107954555    -0.014283707985185    -0.054728102471444
2 26
    -0.105228636362814     0.034987796199433     0.024740107949048
     0.034987796200670    -0.064828209238928    -0.014283707989585
     0.024740107942616    -0.014283707993731    -0.054728102451839
2 27
    -0.023408322959755     0.000000000000971     0.000000000001586
     0.000000000003621    -0.096830600756371    -0.051917390527099
    -0.000000000000475    -0.051917390532106    -0.060119461840037
2 28
     0.251312993085191    -0.059214190288307    -0.041870755494573
    -0.059214190287014     0.120690926070117    -0.036623986555615
    -0.041870755497820    -0.036623986556677     0.146587995290080
2 29
     0.068112771483902     0.000000000007299     0.000000000002716
     0.000000000006062     0.068112771487747    -0.000000000003436
    -0.000000000001218    -0.000000000004509     0.068112771473752
2 30
     0.251312993094334     0.059214190276645     0.041870755487965
     0.059214190280627     0.120690926063359    -0.036623986548416
     0.041870755483256    -0.036623986553717     0.146587995289313
2 31
     0.204627435867257    -0.086168109321498     0.010781924988425
    -0.086168109322075     0.167376483287708     0.054573131206226
     0.010781924985597     0.054573131198598     0.146587995287102
2 32
     0.204627435864353     0.086168109322941    -0.010781924984253
     0.086168109322955     0.167376483283226     0.054573131207389
    -0.010781924993108     0.054573131207072     0.146587995289395
2 33
    -7.053121952924351     0.000000000003318    -0.000000000002615
    -0.000000000000637    -7.053121952913455    -0.000000000072608
    -0.000000000003960    -0.000000000074176   -15.262766779718389
2 34
     0.000938720529284    -0.000000000007265    -0.000000000004888
    -0.000000000005842     0.000938720526540     0.000000000002912
    -0.000000000007441     0.000000000000623     0.199664303388148
2 35
     0.102065449768704     0.026953919033723    -0.052652680480992
     0.026953919031930     0.269938469385816    -0.017949144656960
    -0.052652680485182    -0.017949144662800     0.146587995293455
2 36
     0.102065449768871    -0.026953919026984     0.052652680489259
    -0.026953919025656     0.269938469393737    -0.017949144659763
     0.052652680488514    -0.017949144665919     0.146587995286359
2 37
     0.204627435855317    -0.018557406740095    -0.084834047557801
    -0.018557406741264     0.183199188321117     0.048978960187759
    -0.084834047560104     0.048978960183467     0.130765290265255
2 38
     0.204627435858845     0.018557406738668     0.084834047554429
     0.018557406737132     0.183199188329458     0.048978960182934
     0.084834047553324     0.048978960178951     0.130765290257008
2 39
    -7.053121952929141    -0.000000000003543    -0.000000000004982
    -0.000000000003980   -14.350584021125364     2.580042457002199
    -0.000000000009774     2.580042456997560    -7.965304711502775
2 40
    -0.623191042793655     0.000000000000006    -0.000000000003835
     0.000000000000262    -0.147070223700143    -0.214212066207673
    -0.000000000008038    -0.214212066205036     0.004400580938014
2 41
   -12.526218504004330     3.159893767185710     2.234382310587569
     3.159893767240573    -8.877487470112847    -1.290021228394289
     2.234382310593622    -1.290021228382640    -7.965304711436650
2 42
   -12.526218504167351    -3.159893767179446    -2.234382310542673
    -3.159893767203663    -8.877487470138510    -1.290021228426462
    -2.234382310458004    -1.290021228370011    -7.965304711260523
2 43
    -0.266100428471076     0.206166362301424     0.185513091127517
     0.206166362300114    -0.504160837996848     0.107106033097308
     0.185513091124496     0.107106033097230     0.004400580913471
2 44
     0.172485064543521     0.000000000006670     0.000000000006491
     0.000000000007529     0.215341559645015    -0.097957920389075
     0.000000000002001    -0.097957920392094     0.130765290260907
2 45
    -0.266100428475759    -0.206166362299757    -0.185513091130739
    -0.206166362304178    -0.504160838022065     0.107106033103886
    -0.185513091128494     0.107106033098288     0.004400580933392
2 46
     0.000938720526688    -0.000000000005004    -0.000000000005775
    -0.000000000005422     0.177583683091931    -0.062453425446179
    -0.000000000005618    -0.062453425452746     0.023019340827307
2 47
     0.102065449755604    -0.040656783549292     0.042963292061283
    -0.040656783550176     0.149011859616692     0.024804868236536
     0.042963292056946     0.024804868230747     0.267514605073284
2 48
     0.102065449767593     0.040656783552734    -0.042963292061611
     0.040656783554946     0.149011859623256     0.024804868237880
    -0.042963292068242     0.024804868235181     0.267514605051500
2 49
    -0.266100428472973     0.243625540418965     0.132537813400446
     0.243625540415978     0.015214114228964    -0.076520742252994
     0.132537813397287    -0.076520742257027    -0.514974371305039
2 50
     0.172485064547776    -0.000000000005922    -0.000000000002294
    -0.000000000004069     0.078592244838363    -0.049609736478235
    -0.000000000008177    -0.049609736479761     0.267514605060483
2 51
    -0.266100428478251    -0.243625540418221    -0.132537813398484
    -0.243625540420481     0.015214114216495    -0.076520742252327
    -0.132537813398025    -0.076520742253885    -0.514974371280867
2 52
     0.133422442452413     0.076489512508935     0.054086252980971
     0.076489512509641     0.045099961168320     0.031226712724580
     0.054086252977444     0.031226712718159     0.023019340826543
2 53
     0.133422442443372    -0.076489512518693    -0.054086252988576
    -0.076489512517669     0.045099961161894     0.031226712722853
    -0.054086252993801     0.031226712720769     0.023019340835302
2 54
     0.155871385548869     0.000000000001863    -0.000000000001466
    -0.000000000003256    -0.406757699819125     0.153041484492737
    -0.000000000006012     0.153041484486703    -0.514974371283827
3 1
    -3.444198174114145    -0.839252521086065    -0.593441148762125
     0.839252521098683     0.926915542163845     0.622603484186349
     0.593441148785839     0.622603484200046     0.486668396434247
3 2
    -3.444198174130884     0.839252521157482     0.593441148812429
    -0.839252521107002     0.926915542175843     0.622603484198004
    -0.593441148792891     0.622603484214254     0.486668396441949
3 3
    47.361799770372173    -0.000000000760536    -0.000000000536848
    -0.000000000760536    47.361799772757713    -0.000000000851622
    -0.000000000536848    -0.000000000851622    47.361799771314253
3 4
    -0.044627995684850     0.000000000008861     0.000000000002760
     0.000000000005189    -0.044627995677851    -0.000000000006008
     0.000000000000486    -0.000000000006378    -0.135528956691834
3 5
    -0.165862886898669     1.053495239455351    -0.242469859427367
     2.732000281718301    -2.351419745164159    -0.825236852605476
    -0.835911008265401     0.202633368473027     0.486668396469479
3 6
    -0.165862886925652    -1.053495239482894     0.242469859436844
    -2.732000281670646    -2.351419745142618    -0.825236852574912
     0.835911008240142     0.202633368441844     0.486668396463093
3 7
    -0.165862886922349     2.732000281672749    -0.835911008240884
     1.053495239489608    -2.351419745137222     0.202633368438918
    -0.242469859426438    -0.825236852568362     0.486668396462464
3 8
    -0.044627995668373     0.000000000017592     0.000000000015418
     0.000000000015510    -0.044627995688571     0.000000000007883
     0.000000000014206     0.000000000002675    -0.135528956697181
3 9
    -0.165862886887599    -2.732000281657228     0.835911008257233
    -1.053495239437969    -2.351419745126281     0.202633368458091
     0.242469859445951    -0.825236852558841     0.486668396455652
3 10
    -0.044627995677168     0.000000000010746     0.000000000007483
     0.000000000009645    -0.125428849895011     0.028567415969027
     0.000000000004346     0.028567415965282    -0.054728102476480
3 11
    -0.165862886938652     0.122562304075952     1.074068123517635
     0.122562304069777    -0.024340128451451    -0.620113520241896
     2.854391569863502    -1.647983741280011    -1.840411220116275
3 12
    -0.165862886921698    -0.122562304049463    -1.074068123498937
    -0.122562304040314    -0.024340128450670    -0.620113520239362
    -2.854391569801423    -1.647983741233001    -1.840411220083929
3 13
    -0.105228636351395    -0.034987796186387    -0.024740107938766
    -0.034987796188133    -0.064828209228328    -0.014283707992142
    -0.024740107941812    -0.014283707993678    -0.054728102472550
3 14
    -0.023408322933425     0.000000000003950     0.000000000005134
     0.000000000004398    -0.096830600753011    -0.051917390522222
     0.000000000004533    -0.051917390520990    -0.060119461869731
3 15
    -0.105228636341393     0.034987796214510     0.024740107960810
     0.034987796211827    -0.064828209252932    -0.014283707985088
     0.024740107957575    -0.014283707982158    -0.054728102460010
3 16
    -0.078475031286547     0.031792778895601    -0.044961779086403
     0.031792778896730    -0.041763892405525     0.025958695265441
    -0.044961779090050     0.025958695269896    -0.060119461865286
3 17
    -0.078475031283562    -0.031792778873989     0.044961779105136
    -0.031792778876498    -0.041763892402654     0.025958695265096
     0.044961779103183     0.025958695265963    -0.060119461868982
3 18
     0.046421250792115     0.000000000004991     0.000000000014011
     0.000000000004085    -0.236624266186791     1.240227040491891
    -0.000000000008605     3.295967482517058    -1.840411220214616
3 19
    -0.165862886929640     0.122562304058698     2.854391569859337
     0.122562304066931    -0.024340128449443    -1.647983741263869
     1.074068123507266    -0.620113520249791    -1.840411220128050
3 20
    -0.044627995668122     0.000000000002761     0.000000000002448
     0.000000000004349    -0.125428849911121     0.028567415974016
    -0.000000000000543     0.028567415973992    -0.054728102479503
3 21
    -0.165862886907576    -0.122562304044421    -2.854391569908338
    -0.122562304045782    -0.024340128444605    -1.647983741272105
    -1.074068123468418    -0.620113520233598    -1.840411220136262
3 22
    -0.078475031301967    -0.031792778879646     0.044961779100754
    -0.031792778880997    -0.041763892391908     0.025958695250664
     0.044961779099500     0.025958695250980    -0.060119461864819
3 23
    -0.078475031299482     0.031792778898367    -0.044961779085662
     0.031792778896087    -0.041763892393066     0.025958695259034
    -0.044961779086830     0.025958695260531    -0.060119461867750
3 24
     0.046421250795282     0.000000000011907     0.000000000006807
    -0.000000000003675    -0.236624266188791     3.295967482587236
     0.000000000007974     1.240227040464593    -1.840411220200912
3 25
    -0.023408322932183     0.000000000017338     0.000000000008585
     0.000000000013500    -0.096830600760814    -0.051917390519617
     0.000000000008041    -0.051917390519437    -0.060119461864132
3 26
    -0.105228636350248    -0.034987796191734    -0.024740107945403
    -0.034987796191300    -0.064828209244869    -0.014283707986926
    -0.024740107948530    -0.014283707988617    -0.054728102457643
3 27
    -0.105228636349295     0.034987796213343     0.024740107962750
     0.034987796214331    -0.064828209249465    -0.014283707985223
     0.024740107961585    -0.014283707989230    -0.054728102458968
3 28
     0.251312993092114     0.059214190291274     0.041870755497404
     0.059214190291138     0.120690926066018    -0.036623986555157
     0.041870755496314    -0.036623986554349     0.146587995283667
3 29
     0.251312993100517    -0.059214190269975    -0.041870755481405
    -0.059214190271701     0.120690926059675    -0.036623986551557
    -0.041870755483017    -0.036623986549768     0.146587995285587
3 30
     0.068112771496286     0.000000000001318     0.000000000004288
     0.000000000002408     0.068112771483468     0.000000000001937
     0.000000000001134    -0.000000000001118     0.068112771465496
3 31
    -7.053121952738449     0.000000000002093    -0.000000000044626
     0.000000000003032    -7.053121953112622     0.000000000135248
     0.000000000049097     0.000000000132165   -15.262766779679671
3 32
     0.204627435874268    -0.086168109300000     0.010781925009629
    -0.086168109302531     0.167376483281179     0.054573131207938
     0.010781925003942     0.054573131212345     0.146587995282352
3 33
     0.204627435871131     0.086168109329203    -0.010781924988697
     0.086168109322177     0.167376483285549     0.054573131200652
    -0.010781924987429     0.054573131203629     0.146587995283474
3 34
     0.102065449780088    -0.026953919026889     0.052652680487930
    -0.026953919029066     0.269938469390689    -0.017949144657714
     0.052652680487854    -0.017949144661196     0.146587995277296
3 35
     0.000938720537957     0.000000000015084     0.000000000012089
     0.000000000010342     0.000938720514759     0.000000000005078
     0.000000000010703     0.000000000004664     0.199664303391316
3 36
     0.102065449778913     0.026953919044164    -0.052652680472368
     0.026953919044772     0.269938469391388    -0.017949144659872
    -0.052652680472459    -0.017949144662659     0.146587995281206
3 37
    -7.053121952861415     0.000000000035271     0.000000000063762
     0.000000000094797   -14.350584021605375     2.580042457243709
     0.000000000039527     2.580042457192974    -7.965304711379228
3 38
     0.204627435867842    -0.018557406727802    -0.084834047550803
    -0.018557406730481     0.183199188326003     0.048978960183095