54   
1    

1    
  0.1000000000000000   0.0000000000000000   0.0000000000000000
  -4.7361799771   -0.4518800110   -0.3195270145
   0.3816180229    0.0847984890    0.0599615855
   0.3118850229   -0.0781590110   -0.0552667145
   0.0118816229    0.1009499890   -0.0286757145
   0.0047707629   -0.0004633770    0.0006958745
   0.0211195229   -0.1060350110    0.0194213855
   0.0213985229    0.2654319890   -0.0891229145
   0.0093258729   -0.2808100110    0.0779859855
   0.0042596429    0.0016113290    0.0029751055
   0.0118816229    0.0066141690    0.1047349855
   0.0047707629    0.0005016240   -0.0006688435
   0.0211195229   -0.0170344110   -0.1064450145
   0.0098674729   -0.0040975510   -0.0028974145
   0.0111855229    0.0028158190    0.0019910755
   0.0024285629    0.0013510490    0.0009553295
  -0.0043542171    0.0019250290   -0.0002793235
   0.0083720429   -0.0035680510    0.0049410555
   0.0072171129    0.0029815290   -0.0040458645
   0.0213985229    0.0044513690    0.2799589855
   0.0093258729   -0.0200773110   -0.2907450145
   0.0042596429    0.0033420690    0.0005274655
  -0.0043542171    0.0003783330    0.0019080255
   0.0083720429    0.0034691290   -0.0050110245
   0.0072171129   -0.0028206210    0.0041596255
   0.0106752229   -0.0042065610   -0.0029744945
   0.0024648029   -0.0037665010   -0.0026633245
   0.0101536229    0.0031172290    0.0022042055
  -0.0068112771   -0.0006039470   -0.0004270615
  -0.0284292771   -0.0091281810   -0.0064546045
  -0.0235558771    0.0048188490    0.0034074355
  -0.0222755771   -0.0099773110    0.0015991655
   0.7175050229    0.0249445890    0.0397389855
  -0.0180033771    0.0061243990   -0.0017143045
  -0.0115437771   -0.0002691050    0.0048970755
  -0.0089695971    0.0045799290   -0.0049908145
  -0.0001133391    0.0026702490   -0.0022431645
  -0.0222755771   -0.0018180610   -0.0099397645
   0.7175050229    0.0457811890    0.0102715855
  -0.0180033771    0.0004252070    0.0063455655
   0.9307280229   -0.1214560110   -0.0858821145
   1.5501300229    0.5386809890    0.3809049855
   0.0607951229   -0.0006893500   -0.0004874505
  -0.0169334771    0.0014090390    0.0018578155
   0.0277831229    0.0207381890    0.0197156855
   0.0261180229   -0.0218616110   -0.0175191145
  -0.0115437771    0.0045273090   -0.0018860845
  -0.0089695971   -0.0031787410    0.0059815955
  -0.0001133391   -0.0012247910    0.0032652455
  -0.0169334771    0.0022212490    0.0007091785
   0.0277831229    0.0255008890    0.0129802855
   0.0261180229   -0.0238043110   -0.0147716145
  -0.0125087771    0.0088679590    0.0062705855
  -0.0154252771   -0.0016244310   -0.0011486545
  -0.0141367771   -0.0064749010   -0.0045784545
