nqpoint: 404    
npath: 4      
segment_nqpoint:
- 101
- 101
- 101
- 101
labels:
- [ 'Gamma', 'X' ]
- [ 'X', 'K' ]
- [ 'K', 'Gamma' ]
- [ 'Gamma', 'L' ]
reciprocal_lattice:
- [   0.39997193,  -0.23092390,  -0.16328786 ] # a*
- [   0.00000000,   0.46184781,  -0.16328786 ] # b*
- [   0.00000000,   0.00000000,   0.48986357 ] # c*
natom: 2      
lattice:
- [     2.500175429000000,     0.000000000000000,     0.000000000000000 ] # a
- [     1.250087714500000,     2.165215435399999,     0.000000000000000 ] # b
- [     1.250087714500000,     0.721738478500000,     2.041384689500000 ] # c
points:
- symbol: C # 1
  coordinates: [  0.999997454617902,  0.999997454587760,  0.999997454570897 ]
  mass: 12.010700
- symbol: C # 2
  coordinates: [  0.249997596000766,  0.249997596026479,  0.249997596006757 ]
  mass: 12.010700

phonon:
- q-position: [    0.0000000,    0.0000000,    0.0000000 ]
  distance:    0.0000000
  band:
  - # 1
    frequency:   -0.0000006736
    eigenvector:
    - # atom 1
      - [  0.70490320017786,  0.00000000000000 ]
      - [ -0.05534431676296,  0.00000000000000 ]
      - [ -0.00696311590081,  0.00000000000000 ]
    - # atom 2
      - [  0.70490320017496,  0.00000000000000 ]
      - [ -0.05534431676396,  0.00000000000000 ]
      - [ -0.00696311590017,  0.00000000000000 ]
  - # 2
    frequency:   -0.0000001341
    eigenvector:
    - # atom 1
      - [  0.01510479112038,  0.00000000000000 ]
      - [  0.10441655288511,  0.00000000000000 ]
      - [  0.69919169672404,  0.00000000000000 ]
    - # atom 2
      - [  0.01510479112170,  0.00000000000000 ]
      - [  0.10441655288650,  0.00000000000000 ]
      - [  0.69919169672518,  0.00000000000000 ]
  - # 3
    frequency:    0.0000004935
    eigenvector:
    - # atom 1
      - [ -0.05369658896327,  0.00000000000000 ]
      - [ -0.69716152366937,  0.00000000000000 ]
      - [  0.10527338813040,  0.00000000000000 ]
    - # atom 2
      - [ -0.05369658896248,  0.00000000000000 ]
      - [ -0.69716152366999,  0.00000000000000 ]
      - [  0.10527338812914,  0.00000000000000 ]
  - # 4
    frequency:   39.7106976990
    eigenvector:
    - # atom 1
      - [ -0.26196875929664, -0.00000000000000 ]
      - [ -0.36521890025447,  0.00000000000000 ]
      - [ -0.54588233535332,  0.00000000000000 ]
    - # atom 2
      - [  0.26196875929761,  0.00000000000000 ]
      - [  0.36521890025309,  0.00000000000000 ]
      - [  0.54588233535140,  0.00000000000000 ]
  - # 5
    frequency:   39.7106976992
    eigenvector:
    - # atom 1
      - [ -0.60417758538277,  0.00000000000000 ]
      - [  0.36447899031663,  0.00000000000000 ]
      - [  0.04609241735740,  0.00000000000000 ]
    - # atom 2
      - [  0.60417758538484,  0.00000000000000 ]
      - [ -0.36447899031578,  0.00000000000000 ]
      - [ -0.04609241735792,  0.00000000000000 ]
  - # 6
    frequency:   39.7106976993
    eigenvector:
    - # atom 1
      - [  0.25756904796881,  0.00000000000000 ]
      - [  0.48349790125223,  0.00000000000000 ]
      - [ -0.44708831902882,  0.00000000000000 ]
    - # atom 2
      - [ -0.25756904797098,  0.00000000000000 ]
      - [ -0.48349790125261,  0.00000000000000 ]
      - [  0.44708831902964,  0.00000000000000 ]

- q-position: [    0.0050000,    0.0000000,    0.0050000 ]
  distance:    0.0028282
  band:
  - # 1
    frequency:    0.4387152627
    eigenvector:
    - # atom 1
      - [ -0.50000000001180,  0.00000000000000 ]
      - [  0.28867513456695, -0.00000000006185 ]
      - [ -0.40824829046942, -0.00000000004803 ]
    - # atom 2
      - [ -0.50000000001101,  0.00000000444259 ]
      - [  0.28867513456706, -0.00000000262657 ]
      - [ -0.40824829046969,  0.00000000357922 ]
  - # 2
    frequency:    0.2997011217
    eigenvector:
    - # atom 1
      - [ -0.35345988916787,  0.00000000000000 ]
      - [ -0.17069343415122, -0.40698992984724 ]
      - [  0.31219970182015, -0.28778533922656 ]
    - # atom 2
      - [ -0.35531040125215, -0.00015215662115 ]
      - [ -0.17176229385184, -0.40492364061623 ]
      - [  0.31371030906415, -0.28613789905888 ]
  - # 3
    frequency:    0.2997011216
    eigenvector:
    - # atom 1
      - [  0.35364686728388, -0.00000000000000 ]
      - [  0.23753719526978, -0.40677474858463 ]
      - [ -0.26516302535615, -0.28763318310267 ]
    - # atom 2
      - [  0.35178753881889, -0.00015208245464 ]
      - [  0.23646324563866, -0.40900655230229 ]
      - [ -0.26364521942292, -0.28902504444029 ]
  - # 4
    frequency:   39.7094703350
    eigenvector:
    - # atom 1
      - [  0.01671606517982,  0.00000000000000 ]
      - [ -0.56487398062040, -0.05368185924704 ]
      - [ -0.41989920892668, -0.03795881340392 ]
    - # atom 2
      - [ -0.01647110558165, -0.00261917816569 ]
      - [  0.56500744820602,  0.05227053554164 ]
      - [  0.41969357174979,  0.04016868186701 ]
  - # 5
    frequency:   39.7111861405
    eigenvector:
    - # atom 1
      - [ -0.49999999168365,  0.00000000000000 ]
      - [  0.28867517364159,  0.00000000012831 ]
      - [ -0.40824827303872, -0.00000000012301 ]
    - # atom 2
      - [  0.49999999168489, -0.00000000428639 ]
      - [ -0.28867517364183,  0.00000000257721 ]
      - [  0.40824827303765, -0.00000000359598 ]
  - # 6
    frequency:   39.7094703352
    eigenvector:
    - # atom 1
      - [ -0.49972050336082,  0.00000000000000 ]
      - [ -0.30773212958808, -0.00179570283037 ]
      - [  0.39443062522442, -0.00126975365871 ]
    - # atom 2
      - [  0.49972176581260, -0.00008761828252 ]
      - [  0.30773259217161, -0.00129244863578 ]
      - [ -0.39443184430779, -0.00080658914222 ]

- q-position: [    0.0100000,    0.0000000,    0.0100000 ]
  distance:    0.0056565
  band:
  - # 1
    frequency:    0.8774112168
    eigenvector:
    - # atom 1
      - [ -0.50000000001254,  0.00000000000000 ]
      - [  0.28867513456646, -0.00000000003107 ]
      - [ -0.40824829046887, -0.00000000002397 ]
    - # atom 2
      - [ -0.50000000001174,  0.00000000888519 ]
      - [  0.28867513456657, -0.00000000516049 ]
      - [ -0.40824829046914,  0.00000000723054 ]
  - # 2
    frequency:    0.5994264455
    eigenvector:
    - # atom 1
      - [  0.34966618358652,  0.00000000000000 ]
      - [  0.12612723961541,  0.40567592128536 ]
      - [ -0.33906643868364,  0.28685619486250 ]
    - # atom 2
      - [  0.35334629988296,  0.00069080884260 ]
      - [  0.12825616285878,  0.40180062899067 ]
      - [ -0.34206826618366,  0.28326988481557 ]
  - # 3
    frequency:    0.5994264454
    eigenvector:
    - # atom 1
      - [ -0.35739832126854,  0.00000000000000 ]
      - [ -0.28045777162271,  0.39689932140922 ]
      - [  0.23940816884605,  0.28065020157799 ]
    - # atom 2
      - [ -0.35375903991282,  0.00067587596088 ]
      - [ -0.27835251531201,  0.40161319093692 ]
      - [  0.23643961868515,  0.28315563507085 ]
  - # 4
    frequency:   39.7057889541
    eigenvector:
    - # atom 1
      - [  0.01681844236490,  0.00000000000000 ]
      - [ -0.55735265945413, -0.10675189387443 ]
      - [ -0.41470616371771, -0.07548499139647 ]
    - # atom 2
      - [ -0.01584400150407, -0.00517124696812 ]
      - [  0.55788381519691,  0.10396484218528 ]
      - [  0.41388830609834,  0.07984770645033 ]
  - # 5
    frequency:   39.7126498262
    eigenvector:
    - # atom 1
      - [ -0.49999999791963,  0.00000000000000 ]
      - [  0.28867514435788,  0.00000000006416 ]
      - [ -0.40824828610794, -0.00000000006149 ]
    - # atom 2
      - [  0.49999999792088, -0.00000000880693 ]
      - [ -0.28867514435812,  0.00000000513589 ]
      - [  0.40824828610687, -0.00000000723892 ]
  - # 6
    frequency:   39.7057889544
    eigenvector:
    - # atom 1
      - [ -0.49971706202082,  0.00000000000000 ]
      - [ -0.30759681195655, -0.00359283431155 ]
      - [  0.39452211156002, -0.00254051751062 ]
    - # atom 2
      - [  0.49972212039112, -0.00017405209277 ]
      - [  0.30759867422551, -0.00258398425407 ]
      - [ -0.39452698994806, -0.00161398337538 ]

- q-position: [    0.0150000,    0.0000000,    0.0150000 ]
  distance:    0.0084847
  band:
  - # 1
    frequency:    1.3160684249
    eigenvector:
    - # atom 1
      - [ -0.50000000001232,  0.00000000000000 ]
      - [  0.28867513456692, -0.00000000002087 ]
      - [ -0.40824829046881, -0.00000000001593 ]
    - # atom 2
      - [ -0.50000000001153,  0.00000001332778 ]
      - [  0.28867513456703, -0.00000000771501 ]
      - [ -0.40824829046908,  0.00000001086583 ]
  - # 2
    frequency:    0.8991999655
    eigenvector:
    - # atom 1
      - [  0.34548762884064,  0.00000000000000 ]
      - [  0.08833026600014,  0.40228465126336 ]
      - [ -0.36067527152115,  0.28445820483465 ]
    - # atom 2
      - [  0.35094901673978,  0.00152069435646 ]
      - [  0.09149728318658,  0.39680927474270 ]
      - [ -0.36512465901452,  0.27872406635409 ]
  - # 3
    frequency:    0.8991999654
    eigenvector:
    - # atom 1
      - [ -0.36143920416554,  0.00000000000000 ]
      - [ -0.31490926225060,  0.38453042363014 ]
      - [  0.21999633682377,  0.27190407008383 ]
    - # atom 2
      - [ -0.35613250648280,  0.00145359923391 ]
      - [ -0.31183216789043,  0.39191582310458 ]
      - [  0.21567282034284,  0.27534604792820 ]
  - # 4
    frequency:   39.6996556897
    eigenvector:
    - # atom 1
      - [  0.01701204103150,  0.00000000000000 ]
      - [ -0.54501722574930, -0.15843290950388 ]
      - [ -0.40622079388477, -0.11202898687297 ]
    - # atom 2
      - [ -0.01484205929267, -0.00759193659384 ]
      - [  0.54620081086446,  0.15434028217312 ]
      - [  0.40440004094001,  0.11843324774157 ]
  - # 5
    frequency:   39.7150838454
    eigenvector:
    - # atom 1
      - [ -0.49999999907408,  0.00000000000000 ]
      - [  0.28867513893565,  0.00000000004278 ]
      - [ -0.40824828852813, -0.00000000004097 ]
    - # atom 2
      - [  0.49999999907532, -0.00000001327544 ]
      - [ -0.28867513893589,  0.00000000769869 ]
      - [  0.40824828852706, -0.00000001087142 ]
  - # 6
    frequency:   39.6996556899
    eigenvector:
    - # atom 1
      - [ -0.49971050757793,  0.00000000000000 ]
      - [ -0.30739682731897, -0.00539365720283 ]
      - [  0.39465549769554, -0.00381389158709 ]
    - # atom 2
      - [  0.49972193257234, -0.00025847170297 ]
      - [  0.30740106561500, -0.00387305153548 ]
      - [ -0.39466649346895, -0.00242209910854 ]

- q-position: [    0.0200000,    0.0000000,    0.0200000 ]
  distance:    0.0113129
  band:
  - # 1
    frequency:    1.7546671927
    eigenvector:
    - # atom 1
      - [ -0.50000000001252,  0.00000000000000 ]
      - [  0.28867513456670, -0.00000000001582 ]
      - [ -0.40824829046871, -0.00000000001189 ]
    - # atom 2
      - [ -0.50000000001173,  0.00000001777037 ]
      - [  0.28867513456681, -0.00000001027466 ]
      - [ -0.40824829046898,  0.00000001449712 ]
  - # 2
    frequency:    1.1990452605
    eigenvector:
    - # atom 1
      - [  0.34376991953778,  0.00000000000000 ]
      - [  0.05317994252602,  0.39325837010867 ]
      - [ -0.38342654794056,  0.27807566022229 ]
    - # atom 2
      - [  0.35087125015885,  0.00265190042901 ]
      - [  0.05731218311072,  0.38633619611460 ]
      - [ -0.38920193086177,  0.26993304260139 ]
  - # 3
    frequency:    1.1990452604
    eigenvector:
    - # atom 1
      - [ -0.36307332924705,  0.00000000000000 ]
      - [ -0.34719130426252,  0.37235012149743 ]
      - [  0.19917087233051,  0.26329129584955 ]
    - # atom 2
      - [ -0.35619661486632,  0.00251093210829 ]
      - [ -0.34319046184030,  0.38255278174926 ]
      - [  0.19357767446946,  0.26743041487877 ]
  - # 4
    frequency:   39.6910740944
    eigenvector:
    - # atom 1
      - [  0.01726806669927,  0.00000000000000 ]
      - [ -0.52812554121552, -0.20830083047930 ]
      - [ -0.39459013183655, -0.14729093138640 ]
    - # atom 2
      - [ -0.01346235991103, -0.00982122374702 ]
      - [  0.53020325762539,  0.20300449113609 ]
      - [  0.39139827932830,  0.15557434733607 ]
  - # 5
    frequency:   39.7184800245
    eigenvector:
    - # atom 1
      - [ -0.49999999947804,  0.00000000000000 ]
      - [  0.28867513703784,  0.00000000003209 ]
      - [ -0.40824828937533, -0.00000000003070 ]
    - # atom 2
      - [  0.49999999947929, -0.00000001773093 ]
      - [ -0.28867513703808,  0.00000001026252 ]
      - [  0.40824828937426, -0.00000001450131 ]
  - # 6
    frequency:   39.6910740946
    eigenvector:
    - # atom 1
      - [ -0.49970172542464,  0.00000000000000 ]
      - [ -0.30709774978002, -0.00719819938006 ]
      - [  0.39485622266102, -0.00508989559672 ]
    - # atom 2
      - [  0.49972211653594, -0.00033940737201 ]
      - [  0.30710539230273, -0.00515998604593 ]
      - [ -0.39487579248834, -0.00323297368310 ]

- q-position: [    0.0250000,    0.0000000,    0.0250000 ]
  distance:    0.0141411
  band:
  - # 1
    frequency:    2.1931874418
    eigenvector:
    - # atom 1
      - [ -0.50000000001242,  0.00000000000000 ]
      - [  0.28867513456685, -0.00000000001282 ]
      - [ -0.40824829046873, -0.00000000000945 ]
    - # atom 2
      - [ -0.50000000001163,  0.00000002221296 ]
      - [  0.28867513456696, -0.00000001283638 ]
      - [ -0.40824829046900,  0.00000001812680 ]
  - # 2
    frequency:    1.4989852883
    eigenvector:
    - # atom 1
      - [  0.34168895071028,  0.00000000000000 ]
      - [  0.02053467293811,  0.38265914094263 ]
      - [ -0.40396158353308,  0.27058087340501 ]
    - # atom 2
      - [  0.35030523344891,  0.00403443646697 ]
      - [  0.02557070987181,  0.37445578579175 ]
      - [ -0.41095331576353,  0.25983906997814 ]
  - # 3
    frequency:    1.4989852882
    eigenvector:
    - # atom 1
      - [ -0.36503241082424,  0.00000000000000 ]
      - [ -0.37618877767042,  0.35818846896205 ]
      - [  0.18106593736786,  0.25327749531022 ]
    - # atom 2
      - [ -0.35672917600237,  0.00377646867660 ]
      - [ -0.37133740610013,  0.37135454864314 ]
      - [  0.17432703084074,  0.25796210889181 ]
  - # 4
    frequency:   39.6800491369
    eigenvector:
    - # atom 1
      - [  0.01760893219045,  0.00000000000000 ]
      - [ -0.50707691156886, -0.25569342924288 ]
      - [ -0.38012397472765, -0.18080255900215 ]
    - # atom 2
      - [ -0.01176607364850, -0.01180716999530 ]
      - [  0.51027058530973,  0.24932364210100 ]
      - [  0.37522623205310,  0.19075921021652 ]
  - # 5
    frequency:   39.7228269450
    eigenvector:
    - # atom 1
      - [ -0.49999999966512,  0.00000000000000 ]
      - [  0.28867513615935,  0.00000000002568 ]
      - [ -0.40824828976740, -0.00000000002454 ]
    - # atom 2
      - [  0.49999999966637, -0.00000002218123 ]
      - [ -0.28867513615959,  0.00000001282676 ]
      - [  0.40824828976633, -0.00000001813016 ]
  - # 6
    frequency:   39.6800491371
    eigenvector:
    - # atom 1
      - [ -0.49968982963427,  0.00000000000000 ]
      - [ -0.30672357499431, -0.00901056616078 ]
      - [  0.39510623539358, -0.00637143243690 ]
    - # atom 2
      - [  0.49972190010148, -0.00041610367404 ]
      - [  0.30673575755326, -0.00644143291348 ]
      - [ -0.39513689916176, -0.00404516005081 ]

- q-position: [    0.0300000,    0.0000000,    0.0300000 ]
  distance:    0.0169694
  band:
  - # 1
    frequency:    2.6316085841
    eigenvector:
    - # atom 1
      - [  0.50000000001247, -0.00000000000000 ]
      - [ -0.28867513456682,  0.00000000001086 ]
      - [  0.40824829046869,  0.00000000000782 ]
    - # atom 2
      - [  0.50000000001168, -0.00000002665555 ]
      - [ -0.28867513456693,  0.00000001539912 ]
      - [  0.40824829046897, -0.00000002175569 ]
  - # 2
    frequency:    1.7990421832
    eigenvector:
    - # atom 1
      - [  0.33989894612580,  0.00000000000000 ]
      - [ -0.00864023236472,  0.37056091595545 ]
      - [ -0.42239905797295,  0.26202613647759 ]
    - # atom 2
      - [  0.34988595169330,  0.00561589436924 ]
      - [ -0.00277156347305,  0.36119515583529 ]
      - [ -0.43048081625447,  0.24852550615930 ]
  - # 3
    frequency:    1.7990421831
    eigenvector:
    - # atom 1
      - [ -0.36669974967562,  0.00000000000000 ]
      - [ -0.40162114452705,  0.34347791326651 ]
      - [  0.16512460301445,  0.24287556162412 ]
    - # atom 2
      - [ -0.35710108576491,  0.00520548459626 ]
      - [ -0.39598418715298,  0.35971317468956 ]
      - [  0.15735461940354,  0.24798023450944 ]
  - # 4
    frequency:   39.6665871961
    eigenvector:
    - # atom 1
      - [  0.01802149139798,  0.00000000000000 ]
      - [ -0.48226709855001, -0.30029116903557 ]
      - [ -0.36308606660235, -0.21233792300008 ]
    - # atom 2
      - [ -0.00978129831252, -0.01350443527474 ]
      - [  0.48677775386417,  0.29300254174519 ]
      - [  0.35618344734185,  0.22372357306094 ]
  - # 5
    frequency:   39.7281099675
    eigenvector:
    - # atom 1
      - [ -0.49999999976675,  0.00000000000000 ]
      - [  0.28867513568215,  0.00000000002141 ]
      - [ -0.40824828998037, -0.00000000002043 ]
    - # atom 2
      - [  0.49999999976799, -0.00000002662892 ]
      - [ -0.28867513568239,  0.00000001539121 ]
      - [  0.40824828997929, -0.00000002175848 ]
  - # 6
    frequency:   39.6665871963
    eigenvector:
    - # atom 1
      - [  0.49967512053231,  0.00000000000000 ]
      - [  0.30625647316264,  0.01083042662688 ]
      - [ -0.39541851164750,  0.00765826811299 ]
    - # atom 2
      - [ -0.49972164193198,  0.00048708328309 ]
      - [ -0.30627442933050,  0.00771808591513 ]
      - [  0.39546279156307,  0.00486095813368 ]

- q-position: [    0.0350000,    0.0000000,    0.0350000 ]
  distance:    0.0197976
  band:
  - # 1
    frequency:    3.0699093982
    eigenvector:
    - # atom 1
      - [  0.50000000001238, -0.00000000000000 ]
      - [ -0.28867513456698,  0.00000000000948 ]
      - [  0.40824829046870,  0.00000000000664 ]
    - # atom 2
      - [  0.50000000001159, -0.00000003109814 ]
      - [ -0.28867513456708,  0.00000001796246 ]
      - [  0.40824829046897, -0.00000002538412 ]
  - # 2
    frequency:    2.0992370565
    eigenvector:
    - # atom 1
      - [  0.33781265319613,  0.00000000000000 ]
      - [ -0.03456417176469,  0.35841382835056 ]
      - [ -0.43817487474735,  0.25343684846199 ]
    - # atom 2
      - [  0.34905258622351,  0.00734811364414 ]
      - [ -0.02791793855532,  0.34799630596283 ]
      - [ -0.44724132850777,  0.23707098323899 ]
  - # 3
    frequency:    2.0992370564
    eigenvector:
    - # atom 1
      - [ -0.36862258657098,  0.00000000000000 ]
      - [ -0.42323446131757,  0.32845715567275 ]
      - [  0.15219666477790,  0.23225428207247 ]
    - # atom 2
      - [ -0.35785884175688,  0.00673399133577 ]
      - [ -0.41687626382551,  0.34785055280288 ]
      - [  0.14350974808409,  0.23772006334210 ]
  - # 4
    frequency:   39.6506960547
    eigenvector:
    - # atom 1
      - [  0.01852576691067,  0.00000000000000 ]
      - [ -0.45438359739472, -0.34143349085243 ]
      - [ -0.34398706217716, -0.24142993757948 ]
    - # atom 2
      - [ -0.00758586969133, -0.01488441092678 ]
      - [  0.46038208876890,  0.33339725183028 ]
      - [  0.33483005309181,  0.25397706441755 ]
  - # 5
    frequency:   39.7343112627
    eigenvector:
    - # atom 1
      - [ -0.49999999982802,  0.00000000000000 ]
      - [  0.28867513539441,  0.00000000001836 ]
      - [ -0.40824829010878, -0.00000000001749 ]
    - # atom 2
      - [  0.49999999982927, -0.00000003107513 ]
      - [ -0.28867513539466,  0.00000001795577 ]
      - [  0.40824829010770, -0.00000002538651 ]
  - # 6
    frequency:   39.6506960549
    eigenvector:
    - # atom 1
      - [  0.49965667826047,  0.00000000000000 ]
      - [  0.30572066562243,  0.01265932699636 ]
      - [ -0.39577479788257,  0.00895149596616 ]
    - # atom 2
      - [ -0.49972052636573,  0.00055190031268 ]
      - [ -0.30574574909129,  0.00898932309044 ]
      - [  0.39583525882910,  0.00568047423650 ]

- q-position: [    0.0400000,    0.0000000,    0.0400000 ]
  distance:    0.0226258
  band:
  - # 1
    frequency:    3.5080679091
    eigenvector:
    - # atom 1
      - [  0.50000000001236, -0.00000000000000 ]
      - [ -0.28867513456703,  0.00000000000847 ]
      - [  0.40824829046868,  0.00000000000576 ]
    - # atom 2
      - [  0.50000000001157, -0.00000003554073 ]
      - [ -0.28867513456713,  0.00000002052616 ]
      - [  0.40824829046896, -0.00000002901226 ]
  - # 2
    frequency:    2.3995898019
    eigenvector:
    - # atom 1
      - [  0.33685629887423,  0.00000000000000 ]
      - [ -0.05666051177696,  0.34491087037116 ]
      - [ -0.45262805655487,  0.24388881531018 ]
    - # atom 2
      - [  0.34918203468122,  0.00919412872394 ]
      - [ -0.04931972868511,  0.33346818019089 ]
      - [ -0.46253322076921,  0.22453714948768 ]
  - # 3
    frequency:    2.3995898018
    eigenvector:
    - # atom 1
      - [ -0.36949673056532,  0.00000000000000 ]
      - [ -0.44228812884756,  0.31444229306433 ]
      - [  0.13979429063808,  0.22234427768594 ]
    - # atom 2
      - [ -0.35765502496355,  0.00838199007222 ]
      - [ -0.43524663158749,  0.33703645728268 ]
      - [  0.13027031289751,  0.22805496506817 ]
  - # 4
    frequency:   39.6323848905
    eigenvector:
    - # atom 1
      - [  0.01910405594203,  0.00000000000000 ]
      - [ -0.42375612169856, -0.37922021877316 ]
      - [ -0.32303842261059, -0.26814918900128 ]
    - # atom 2
      - [ -0.00520410528326, -0.01591707733307 ]
      - [  0.43139264297632,  0.37062398934528 ]
      - [  0.31141436530891,  0.28156509571098 ]
  - # 5
    frequency:   39.7414098487
    eigenvector:
    - # atom 1
      - [ -0.49999999986779,  0.00000000000000 ]
      - [  0.28867513520766,  0.00000000001607 ]
      - [ -0.40824829019213, -0.00000000001528 ]
    - # atom 2
      - [  0.49999999986903, -0.00000003552040 ]
      - [ -0.28867513520791,  0.00000002052041 ]
      - [  0.40824829019105, -0.00000002901436 ]
  - # 6
    frequency:   39.6323848907
    eigenvector:
    - # atom 1
      - [  0.49963490188007,  0.00000000000000 ]
      - [  0.30508883115721,  0.01449987631838 ]
      - [ -0.39619490191627,  0.01025296087273 ]
    - # atom 2
      - [ -0.49971911472950,  0.00060864142761 ]
      - [ -0.30512259048398,  0.01025266775355 ]
      - [  0.39627416972079,  0.00650430042542 ]

- q-position: [    0.0450000,    0.0000000,    0.0450000 ]
  distance:    0.0254541
  band:
  - # 1
    frequency:    3.9460612699
    eigenvector:
    - # atom 1
      - [  0.50000000001231, -0.00000000000000 ]
      - [ -0.28867513456715,  0.00000000000771 ]
      - [  0.40824829046865,  0.00000000000506 ]
    - # atom 2
      - [  0.50000000001153, -0.00000003998332 ]
      - [ -0.28867513456725,  0.00000002309011 ]
      - [  0.40824829046893, -0.00000003264021 ]
  - # 2
    frequency:    2.7001189054
    eigenvector:
    - # atom 1
      - [  0.33541353355255,  0.00000000000000 ]
      - [ -0.07657929900387,  0.33212329554603 ]
      - [ -0.46494574664472,  0.23484663443787 ]
    - # atom 2
      - [  0.34872578935085,  0.01114083282270 ]
      - [ -0.06858706096977,  0.31974135128546 ]
      - [ -0.47559849795168,  0.21244659982482 ]
  - # 3
    frequency:    2.7001189053
    eigenvector:
    - # atom 1
      - [ -0.37080690594909,  0.00000000000000 ]
      - [ -0.45852247581056,  0.30042225846007 ]
      - [  0.12991950439678,  0.21243061614614 ]
    - # atom 2
      - [ -0.35800090739296,  0.01007749859099 ]
      - [ -0.45085176866798,  0.32628305613055 ]
      - [  0.11965943238053,  0.21837459683130 ]
  - # 4
    frequency:   39.6116642664
    eigenvector:
    - # atom 1
      - [  0.01977523129472,  0.00000000000000 ]
      - [ -0.39119143920259, -0.41318056001182 ]
      - [ -0.30083373313394, -0.29216277647994 ]
    - # atom 2
      - [ -0.00271850659351, -0.01659845532968 ]
      - [  0.40058271213288,  0.40421599274493 ]
      - [  0.28658422980652,  0.30615274321271 ]
  - # 5
    frequency:   39.7493816347
    eigenvector:
    - # atom 1
      - [ -0.49999999989511,  0.00000000000000 ]
      - [  0.28867513507957,  0.00000000001429 ]
      - [ -0.40824829024924, -0.00000000001356 ]
    - # atom 2
      - [  0.49999999989635, -0.00000003996506 ]
      - [ -0.28867513507983,  0.00000002308509 ]
      - [  0.40824829024816, -0.00000003264208 ]
  - # 6
    frequency:   39.6116642666
    eigenvector:
    - # atom 1
      - [  0.49960878728268,  0.00000000000000 ]
      - [  0.30438509604071,  0.01635427829853 ]
      - [ -0.39666053414489,  0.01156422108785 ]
    - # atom 2
      - [ -0.49971658909732,  0.00065703061919 ]
      - [ -0.30442926702786,  0.01150694191962 ]
      - [  0.39676133025795,  0.00733194177963 ]

- q-position: [    0.0500000,    0.0000000,    0.0500000 ]
  distance:    0.0282823
  band:
  - # 1
    frequency:    4.3838656481
    eigenvector:
    - # atom 1
      - [  0.50000000001226, -0.00000000000000 ]
      - [ -0.28867513456727,  0.00000000000711 ]
      - [  0.40824829046863,  0.00000000000449 ]
    - # atom 2
      - [  0.50000000001147, -0.00000004442591 ]
      - [ -0.28867513456736,  0.00000002565423 ]
      - [  0.40824829046891, -0.00000003626803 ]
  - # 2
    frequency:    3.0008412618
    eigenvector:
    - # atom 1
      - [  0.33449239371827,  0.00000000000000 ]
      - [ -0.09346292732426,  0.31941158433209 ]
      - [ -0.47575611343076,  0.22585809723945 ]
    - # atom 2
      - [  0.34867144553763,  0.01314277649581 ]
      - [ -0.08487451536616,  0.30609810123083 ]
      - [ -0.48704891009466,  0.20034749494871 ]
  - # 3
    frequency:    3.0008412617
    eigenvector:
    - # atom 1
      - [ -0.37163804774865,  0.00000000000000 ]
      - [ -0.47250330431983,  0.28748602591984 ]
      - [  0.12105150240965,  0.20328331839516 ]
    - # atom 2
      - [ -0.35793234066859,  0.01182920042230 ]
      - [ -0.46422836803792,  0.31663694992261 ]
      - [  0.11011677151477,  0.20940838188678 ]
  - # 4
    frequency:   39.5885461191
    eigenvector:
    - # atom 1
      - [  0.02051361361153,  0.00000000000000 ]
      - [ -0.35672160503354, -0.44377019813615 ]
      - [ -0.27736420944177, -0.31379291694915 ]
    - # atom 2
      - [ -0.00013330220010, -0.01690258757306 ]
      - [  0.36797108572935,  0.43464314721851 ]
      - [  0.26035811164829,  0.32804047479591 ]
  - # 5
    frequency:   39.7581994713
    eigenvector:
    - # atom 1
      - [ -0.49999999991456,  0.00000000000000 ]
      - [  0.28867513498799,  0.00000000001286 ]
      - [ -0.40824829029018, -0.00000000001218 ]
    - # atom 2
      - [  0.49999999991579, -0.00000004440928 ]
      - [ -0.28867513498825,  0.00000002564982 ]
      - [  0.40824829028909, -0.00000003626971 ]
  - # 6
    frequency:   39.5885461193
    eigenvector:
    - # atom 1
      - [  0.49957901451120,  0.00000000000000 ]
      - [  0.30356602706746,  0.01822200316388 ]
      - [ -0.39720323937428,  0.01288490200546 ]
    - # atom 2
      - [ -0.49971372112656,  0.00069409508794 ]
      - [ -0.30362256429079,  0.01275223648876 ]
      - [  0.39732824275457,  0.00816710349614 ]

- q-position: [    0.0550000,    0.0000000,    0.0550000 ]
  distance:    0.0311105
  band:
  - # 1
    frequency:    4.8214561152
    eigenvector:
    - # atom 1
      - [  0.50000000001220, -0.00000000000000 ]
      - [ -0.28867513456742,  0.00000000000665 ]
      - [  0.40824829046860,  0.00000000000403 ]
    - # atom 2
      - [  0.50000000001142, -0.00000004886850 ]
      - [ -0.28867513456750,  0.00000002821847 ]
      - [  0.40824829046888, -0.00000003989575 ]
  - # 2
    frequency:    3.3017719973
    eigenvector:
    - # atom 1
      - [  0.33332549431980,  0.00000000000000 ]
      - [ -0.10835728137711,  0.30774957581119 ]
      - [ -0.48485885812719,  0.21761181193343 ]
    - # atom 2
      - [  0.34830264725736,  0.01519366180919 ]
      - [ -0.09919812717723,  0.29354920732293 ]
      - [ -0.49672554933300,  0.18896227570199 ]
  - # 3
    frequency:    3.3017719972
    eigenvector:
    - # atom 1
      - [ -0.37268500751482,  0.00000000000000 ]
      - [ -0.48420464474588,  0.27524793704752 ]
      - [  0.11405966385113,  0.19462968276598 ]
    - # atom 2
      - [ -0.35814767137174,  0.01358911446114 ]
      - [ -0.47535349674125,  0.30772441284956 ]
      - [  0.10251384274295,  0.20095082079293 ]
  - # 4
    frequency:   39.5630437460
    eigenvector:
    - # atom 1
      - [  0.02135772660389,  0.00000000000000 ]
      - [ -0.32171870462391, -0.47025099526641 ]
      - [ -0.25364724414358, -0.33251766810260 ]
    - # atom 2
      - [  0.00243123257566, -0.01687300529822 ]
      - [  0.33488465288283,  0.46114719559116 ]
      - [  0.23382156968758,  0.34674543632111 ]
  - # 5
    frequency:   39.7678332058
    eigenvector:
    - # atom 1
      - [ -0.49999999992902,  0.00000000000000 ]
      - [  0.28867513492019,  0.00000000001170 ]
      - [ -0.40824829032041, -0.00000000001105 ]
    - # atom 2
      - [  0.49999999993025, -0.00000004885319 ]
      - [ -0.28867513492046,  0.00000002821456 ]
      - [  0.40824829031931, -0.00000003989728 ]
  - # 6
    frequency:   39.5630437462
    eigenvector:
    - # atom 1
      - [  0.49954363931816,  0.00000000000000 ]
      - [  0.30269377022253,  0.02010533496405 ]
      - [ -0.39777669255763,  0.01421661869254 ]
    - # atom 2
      - [ -0.49970878558297,  0.00072144534617 ]
      - [ -0.30276480338589,  0.01398833694935 ]
      - [  0.39792872656497,  0.00900766142563 ]

- q-position: [    0.0600000,    0.0000000,    0.0600000 ]
  distance:    0.0339387
  band:
  - # 1
    frequency:    5.2588065415
    eigenvector:
    - # atom 1
      - [  0.50000000001212, -0.00000000000000 ]
      - [ -0.28867513456758,  0.00000000000627 ]
      - [  0.40824829046858,  0.00000000000363 ]
    - # atom 2
      - [  0.50000000001134, -0.00000005331109 ]
      - [ -0.28867513456766,  0.00000003078281 ]
      - [  0.40824829046887, -0.00000004352340 ]
  - # 2
    frequency:    3.6029243000
    eigenvector:
    - # atom 1
      - [  0.33240824704830,  0.00000000000000 ]
      - [ -0.12115804241921,  0.29663275732673 ]
      - [ -0.49278696917112,  0.20975103419914 ]