ITEM: TIMESTEP
13
ITEM: NUMBER OF ATOMS
2
ITEM: BOX BOUNDS xy xz yz pp pp pp
-1.0543474253808164e-02 5.0319812807614239e+00 1.2606311887538082e+00
-9.1309165478115472e-03 2.9021721081466332e+00 1.2606311887538082e+00
-8.6087106793422633e-03 2.0499934001793423e+00 7.2782575619882206e-01
ITEM: ATOMS id type x y z fx fy fz
1 1 5.03197 2.90216 2.04999 -0.00271063 -0.00258342 0.00420086
2 1 1.25007 0.718688 0.506036 0.00271063 0.00258342 -0.00420086
