LAMMPS data file via write_data, version 2 Aug 2023, timestep = 13, units = metal

2 atoms
1 atom types

-0.010543474253808164 2.5107189032538075 xlo xhi
-0.009130916547811547 2.1743463519478112 ylo yhi
-0.008608710679342263 2.0499934001793423 zlo zhi
1.2606311887538082 1.2606311887538082 0.7278257561988221 xy xz yz

Masses

1 12.0107

Atoms # atomic

1 1 5.031971795654079 2.9021649972628922 2.0499890153286615 0 0 0
2 1 1.2500722421721675 0.7186875413211757 0.5060360129947206 0 0 0

Velocities

1 0 0 0
2 0 0 0
