  54   54
1 1
    46.763999717064678    -0.000000000006647    -0.000000000003556
    -0.000000000006647    46.763999717089170    -0.000000000013372
    -0.000000000003556    -0.000000000013372    46.763999717064593
1 2
    -3.412452429215219    -0.859522974116039    -0.607774523576901
     0.859522974107897     0.759635795628453     0.542114767486431
     0.607774523567815     0.542114767489530     0.376302767307736
1 3
    -3.412452429152912     0.859522974098951     0.607774523559837
    -0.859522974084825     0.759635795621555     0.542114767489893
    -0.607774523535137     0.542114767478456     0.376302767292498
1 4
    -0.283386260608755    -0.947044220656707     0.165597898636435
    -2.666090168866688    -2.369430372989590    -0.797405560931043
     0.773372422231185     0.255290793453314     0.376302767327706
1 5
     0.414892931188298    -0.000000000008562    -0.000000000008803
    -0.000000000008473     0.414892931205299    -0.000000000003382
    -0.000000000005896    -0.000000000015107    -0.248846011168993
1 6
    -0.283386260601547     0.947044220646723    -0.165597898645408
     2.666090168902980    -2.369430373043363    -0.797405560939470
    -0.773372422240123     0.255290793470617     0.376302767333171
1 7
    -0.283386260600496    -2.666090168870298     0.773372422223323
    -0.947044220680471    -2.369430373048518     0.255290793464089
     0.165597898644966    -0.797405560901318     0.376302767320624
1 8
    -0.283386260596941     2.666090168857556    -0.773372422225112
     0.947044220668005    -2.369430373036546     0.255290793465739
    -0.165597898645975    -0.797405560913167     0.376302767323361
1 9
     0.414892931190440     0.000000000002362     0.000000000001550
    -0.000000000001431     0.414892931196360    -0.000000000001032
     0.000000000001743    -0.000000000008284    -0.248846011168560
1 10
    -0.283386260603681    -0.159554210794519    -0.948081153556128
    -0.159554210811475    -0.099148927502091    -0.547374909243678
    -2.771404724287054    -1.600071263628432    -1.893978678166534
1 11
     0.414892931181107    -0.000000000002546    -0.000000000001935
    -0.000000000005082    -0.175097239783054     0.208593025362923
     0.000000000001507     0.208593025359981     0.341144159809719
1 12
    -0.283386260603266     0.159554210791790     0.948081153552750
     0.159554210787794    -0.099148927504837    -0.547374909232825
     2.771404724226679    -1.600071263590436    -1.893978678115049
1 13
    -0.027599697059645     0.255473238029295     0.180646859018435
     0.255473238024547     0.267395388464968    -0.104296512696043
     0.180646859017965    -0.104296512697758     0.341144159815112
1 14
    -0.027599697043730    -0.255473238029148    -0.180646859019300
    -0.255473238036309     0.267395388457795    -0.104296512693749
    -0.180646859016691    -0.104296512689690     0.341144159805827
1 15
    -0.056197104547101    -0.000000000000326    -0.000000000001741
    -0.000000000002553    -0.096764161315144    -0.028685240940213
    -0.000000000001064    -0.028685240936789    -0.076480632916481
1 16
    -0.007030260956922     0.000000000000355    -0.000000000001261
    -0.000000000006827    -0.375504927150915     1.094749818457935
    -0.000000000003964     3.200142527186294    -1.893978678230310
1 17
    -0.086622397114969     0.017566050862970    -0.024842147361685
     0.017566050861724    -0.066338868727835     0.014342620463722
    -0.024842147360702     0.014342620463794    -0.076480632936703
1 18
    -0.086622397133225    -0.017566050862087     0.024842147362758
    -0.017566050864071    -0.066338868727779     0.014342620461325
     0.024842147363676     0.014342620459823    -0.076480632921356
1 19
    -0.283386260605694    -0.159554210819360    -2.771404724282619
    -0.159554210802630    -0.099148927512745    -1.600071263650333
    -0.948081153557015    -0.547374909239462    -1.893978678162475
1 20
    -0.283386260584310     0.159554210792332     2.771404724218921
     0.159554210775174    -0.099148927511002    -1.600071263602338
     0.948081153541221    -0.547374909236887    -1.893978678135133
1 21
     0.414892931181225     0.000000000000293    -0.000000000000401
    -0.000000000003067    -0.175097239770360     0.208593025361455
    -0.000000000001463     0.208593025361587     0.341144159809616
1 22
    -0.007030260971252    -0.000000000001195    -0.000000000003890
    -0.000000000003509    -0.375504927092558     3.200142527168754
    -0.000000000000652     1.094749818405695    -1.893978678218348
1 23
    -0.086622397130828    -0.017566050866260     0.024842147360952
    -0.017566050866742    -0.066338868717377     0.014342620457906
     0.024842147362124     0.014342620457919    -0.076480632936171
1 24
    -0.086622397129657     0.017566050859572    -0.024842147366548
     0.017566050860617    -0.066338868732300     0.014342620458697
    -0.024842147362809     0.014342620458316    -0.076480632914896
1 25
    -0.027599697042597     0.255473238024847     0.180646859011978
     0.255473238026807     0.267395388449777    -0.104296512691343
     0.180646859013383    -0.104296512688391     0.341144159811298
1 26
    -0.056197104556758    -0.000000000003727    -0.000000000004767
    -0.000000000004132    -0.096764161306896    -0.028685240942890
    -0.000000000005059    -0.028685240943217    -0.076480632914247
1 27
    -0.027599697055997    -0.255473238027444    -0.180646859017870
    -0.255473238028430     0.267395388450441    -0.104296512693647
    -0.180646859008443    -0.104296512692494     0.341144159823573
1 28
     0.087874317063983    -0.000000000005040    -0.000000000003068
    -0.000000000005117     0.087874317090688    -0.000000000011859
    -0.000000000001905    -0.000000000010061     0.087874317065072
1 29
     0.217412647043776     0.131657003559536     0.093095560003044
     0.131657003558109     0.066951768805229     0.067340142513004
     0.093095560003552     0.067340142513464     0.019335097365192
1 30
     0.217412647046554    -0.131657003564963    -0.093095560007787
    -0.131657003565275     0.066951768805640     0.067340142517129
    -0.093095560007061     0.067340142513323     0.019335097363730
1 31
     0.218585298025618     0.130979973187820     0.104866054110608
     0.130979973191943     0.065779117829481     0.046953048680570
     0.104866054112677     0.046953048675953     0.019335097365387
1 32
    -7.126795905158172     0.000000000052163     0.000000000115927
     0.000000000049202    -7.126795905309114     0.000000000118504
     0.000000000056050     0.000000000022784   -15.243144038317922
1 33
     0.218585298019954    -0.130979973198006    -0.104866054122697
    -0.130979973202632     0.065779117831395     0.046953048673516
    -0.104866054119309     0.046953048674605     0.019335097367892
1 34
    -0.009451321299703    -0.000677030364274     0.011770494106776
    -0.000677030366763     0.293815737162397    -0.114293191208502
     0.011770494110566    -0.114293191212116     0.019335097364348
1 35
    -0.009451321301868     0.000677030358450    -0.011770494111247
     0.000677030355081     0.293815737155732    -0.114293191207925
    -0.011770494110302    -0.114293191211521     0.019335097373115
1 36
     0.025355248050711     0.000000000002645     0.000000000002817
     0.000000000002878     0.025355248057406    -0.000000000003389
     0.000000000006480    -0.000000000004052     0.141336505114296
1 37
     0.218585298011998     0.142528655041486     0.088533751620771
     0.142528655039806     0.054007383316622     0.051114985324454
     0.088533751617851     0.051114985322324     0.031106831888589
1 38
    -7.126795905244344    -0.000000000000846    -0.000000000003707
    -0.000000000003846   -14.341327579022993     2.550722134868333
     0.000000000000354     2.550722134867319    -8.028612364512012
1 39
     0.218585298015078    -0.142528655051777    -0.088533751629218
    -0.142528655052867     0.054007383325378     0.051114985320177
    -0.088533751629276     0.051114985318266     0.031106831877598
1 40
   -12.537694660672447     3.123983853020487     2.208990166726928
     3.123983853046044    -8.930428823846938    -1.275361067364583
     2.208990166643592    -1.275361067307340    -8.028612364273213
1 41
   -12.537694660440369    -3.123983852894844    -2.208990166640667
    -3.123983852924590    -8.930428823781041    -1.275361067305933
    -2.208990166601836    -1.275361067275276    -8.028612364416677
1 42
     0.088258848427941    -0.000000000006165    -0.000000000002254
    -0.000000000003035    -0.391327796070789    -0.290483842591843
     0.000000000001009    -0.290483842581359    -0.185924701133028
1 43
    -0.028281574051353    -0.000000000002651    -0.000000000003890
    -0.000000000004480     0.300874255398352    -0.102229970681548
    -0.000000000002073    -0.102229970678839     0.031106831873835
1 44
    -0.271431134936138     0.207667108729329    -0.251566387061293
     0.207667108739666    -0.031637812684223     0.145241921293271
    -0.251566387063540     0.145241921286692    -0.185924701158126
1 45
    -0.271431134949849    -0.207667108727627     0.251566387067049
    -0.207667108736022    -0.031637812684357     0.145241921285658
     0.251566387065783     0.145241921277413    -0.185924701143017
1 46
    -0.009451321302003     0.010871651480979    -0.004561808386558
     0.010871651480701    -0.022004823124036    -0.002633761301394
    -0.004561808383040    -0.002633761298847     0.335155657642749
1 47
    -0.009451321316062    -0.010871651493473     0.004561808376537
    -0.010871651494518    -0.022004823132021    -0.002633761301627
     0.004561808377624    -0.002633761301997     0.335155657664245
1 48
     0.025355248049516     0.000000000003331     0.000000000001738
     0.000000000003469     0.128449698794866    -0.036449392614018
    -0.000000000000107    -0.036449392614842     0.038242054375864
1 49
    -0.028281574052461    -0.000000000002625    -0.000000000003754
    -0.000000000004845    -0.003174570372136     0.005267522586513
     0.000000000000601     0.005267522588254     0.335155657649217
1 50
    -0.271431134931961    -0.167956694712875     0.279645890098418
    -0.167956694722395    -0.077491449135017     0.161453629930737
     0.279645890100235     0.161453629923332    -0.140071064712058
1 51
    -0.271431134951181     0.167956694705542    -0.279645890106524
     0.167956694709246    -0.077491449128917     0.161453629923249
    -0.279645890101313     0.161453629920071    -0.140071064698430
1 52
     0.102676086105181    -0.044641206670747    -0.031566099959368
    -0.044641206673549     0.051128860739788     0.018224696301429
    -0.031566099958082     0.018224696298252     0.038242054374920
1 53
     0.019478393766242    -0.000000000010975    -0.000000000006428
    -0.000000000006099    -0.368400977845959    -0.322907259863514
    -0.000000000003535    -0.322907259854766    -0.140071064697295
1 54
     0.102676086091114     0.044641206662942     0.031566099948838
     0.044641206657706     0.051128860733667     0.018224696296086
     0.031566099948345     0.018224696298441     0.038242054396151
2 1
    -3.412452429215219     0.859522974107897     0.607774523567815
    -0.859522974116039     0.759635795628453     0.542114767489530
    -0.607774523576901     0.542114767486431     0.376302767307736
2 2
    46.763999717071997    -0.000000000001496    -0.000000000005529
    -0.000000000001496    46.763999717084708    -0.000000000007427
    -0.000000000005529    -0.000000000007427    46.763999717066682
2 3
    -3.412452429170511    -0.859522974103419    -0.607774523564475
     0.859522974155417     0.759635795633441     0.542114767504391
     0.607774523584308     0.542114767489855     0.376302767300587
2 4
    -0.283386260611452     0.947044220654588    -0.165597898647724
     2.666090168854504    -2.369430372992856    -0.797405560926338
    -0.773372422250812     0.255290793458906     0.376302767328007
2 5
    -0.283386260608871    -0.947044220671147     0.165597898628173
    -2.666090168916379    -2.369430373043826    -0.797405560928984
     0.773372422254476     0.255290793485933     0.376302767330175
2 6
     0.414892931186284    -0.000000000000188     0.000000000000953
    -0.000000000002966     0.414892931199143    -0.000000000002956
    -0.000000000002013    -0.000000000014444    -0.248846011149473
2 7
     0.414892931191140    -0.000000000008600    -0.000000000004654
    -0.000000000005817     0.414892931197659    -0.000000000001140
    -0.000000000009883    -0.000000000013484    -0.248846011165235
2 8
    -0.283386260583614    -2.666090168805007     0.773372422225858
    -0.947044220656762    -2.369430373004998     0.255290793460476
     0.165597898658339    -0.797405560874029     0.376302767313468
2 9
    -0.283386260590996     2.666090168860023    -0.773372422227958
     0.947044220669958    -2.369430373043868     0.255290793471299
    -0.165597898650432    -0.797405560905257     0.376302767323144
2 10
    -0.283386260600025     0.159554210792467     0.948081153551364
     0.159554210806289    -0.099148927504313    -0.547374909239156
     2.771404724278078    -1.600071263627010    -1.893978678165500
2 11
    -0.283386260602255    -0.159554210791006    -0.948081153555427
    -0.159554210788559    -0.099148927506032    -0.547374909229198
    -2.771404724231088    -1.600071263588916    -1.893978678113108
2 12
     0.414892931187408     0.000000000003330    -0.000000000000742
     0.000000000004317    -0.175097239786303     0.208593025368341
    -0.000000000005917     0.208593025361307     0.341144159809847
2 13
    -0.056197104554401     0.000000000003950     0.000000000003276
     0.000000000002362    -0.096764161292829    -0.028685240942990
    -0.000000000001194    -0.028685240947159    -0.076480632928563
2 14
    -0.027599697034237     0.255473238019719     0.180646859011748
     0.255473238020891     0.267395388460096    -0.104296512686029
     0.180646859006650    -0.104296512686407     0.341144159808177
2 15
    -0.027599697044852    -0.255473238024451    -0.180646859017276
    -0.255473238029337     0.267395388445985    -0.104296512687632
    -0.180646859016069    -0.104296512684076     0.341144159822609
2 16
    -0.086622397114206    -0.017566050865680     0.024842147360220
    -0.017566050864520    -0.066338868732721     0.014342620469111
     0.024842147355962     0.014342620469017    -0.076480632932412
2 17
    -0.007030260950512    -0.000000000010238     0.000000000004374
     0.000000000004146    -0.375504927138619     1.094749818455700
    -0.000000000001027     3.200142527182778    -1.893978678228460
2 18
    -0.086622397129436     0.017566050859230    -0.024842147362735
     0.017566050859047    -0.066338868729926     0.014342620465758
    -0.024842147365674     0.014342620461196    -0.076480632920263
2 19
     0.414892931184389    -0.000000000008047    -0.000000000002288
    -0.000000000007742    -0.175097239783627     0.208593025365507
    -0.000000000006085     0.208593025365237     0.341144159809318
2 20
    -0.283386260594330    -0.159554210816454    -2.771404724282092
    -0.159554210793949    -0.099148927515863    -1.600071263643415
    -0.948081153562424    -0.547374909237331    -1.893978678166341
2 21
    -0.283386260607307     0.159554210811963     2.771404724298148
     0.159554210789199    -0.099148927508348    -1.600071263607495
     0.948081153547953    -0.547374909239229    -1.893978678161402
2 22
    -0.086622397129320     0.017566050860405    -0.024842147365859
     0.017566050859103    -0.066338868718827     0.014342620453673
    -0.024842147367282     0.014342620450339    -0.076480632931543
2 23
    -0.007030260965121    -0.000000000007161     0.000000000004659
    -0.000000000004041    -0.375504927097948     3.200142527181452
    -0.000000000004682     1.094749818415252    -1.893978678226701
2 24
    -0.086622397126002    -0.017566050857360     0.024842147361363
    -0.017566050856358    -0.066338868734522     0.014342620463219
     0.024842147359762     0.014342620459739    -0.076480632913861
2 25
    -0.027599697033201    -0.255473238019860    -0.180646859016565
    -0.255473238024316     0.267395388452002    -0.104296512683677
    -0.180646859016596    -0.104296512685138     0.341144159813627
2 26
    -0.027599697054655     0.255473238024593     0.180646859014698
     0.255473238027470     0.267395388452584    -0.104296512691255
     0.180646859002891    -0.104296512690921     0.341144159825370
2 27
    -0.056197104550789     0.000000000000876     0.000000000001595
     0.000000000003171    -0.096764161313482    -0.028685240936237
    -0.000000000000493    -0.028685240941946    -0.076480632913975
2 28
     0.217412647042591    -0.131657003559841    -0.093095560005576
    -0.131657003557801     0.066951768813300     0.067340142512783
    -0.093095560008704     0.067340142511711     0.019335097366786
2 29
     0.087874317075922     0.000000000006861     0.000000000002038
     0.000000000005568     0.087874317080251    -0.000000000003465
    -0.000000000001188    -0.000000000004896     0.087874317066775
2 30
     0.217412647053144     0.131657003546774     0.093095559998882
     0.131657003551267     0.066951768805767     0.067340142523312
     0.093095559993464     0.067340142515712     0.019335097365448
2 31
     0.218585298025873    -0.130979973204769    -0.104866054122668
    -0.130979973204462     0.065779117825140     0.046953048683354
    -0.104866054125026     0.046953048675877     0.019335097365193
2 32
     0.218585298022863     0.130979973205855     0.104866054126432
     0.130979973204819     0.065779117821206     0.046953048685291
     0.104866054117746     0.046953048684530     0.019335097367209
2 33
    -7.126795905235896     0.000000000002957    -0.000000000002814
    -0.000000000000695    -7.126795905225872    -0.000000000071279
    -0.000000000004047    -0.000000000073290   -15.243144038316508
2 34
     0.025355248056016    -0.000000000006794    -0.000000000005121
    -0.000000000005878     0.025355248054023     0.000000000002921
    -0.000000000007419    -0.000000000000328     0.141336505112543
2 35
    -0.009451321298354    -0.000677030354138     0.011770494119429
    -0.000677030356871     0.293815737153492    -0.114293191203543
     0.011770494116063    -0.114293191210119     0.019335097373994
2 36
    -0.009451321297647     0.000677030361172    -0.011770494108940
     0.000677030363667     0.293815737160855    -0.114293191205682
    -0.011770494111402    -0.114293191213018     0.019335097367956
2 37
     0.218585298015342    -0.142528655048888    -0.088533751624347
    -0.142528655051525     0.054007383313860     0.051114985328649
    -0.088533751625339     0.051114985324105     0.031106831889839
2 38
     0.218585298018816     0.142528655047008     0.088533751620556
     0.142528655044980     0.054007383324584     0.051114985322852
     0.088533751619995     0.051114985318738     0.031106831879701
2 39
    -7.126795905240771    -0.000000000003924    -0.000000000004956
    -0.000000000004041   -14.341327579026643     2.550722134874702
    -0.000000000009635     2.550722134869692    -8.028612364512046
2 40
     0.088258848433477     0.000000000000285    -0.000000000004295
    -0.000000000001368    -0.391327796073747    -0.290483842585500
    -0.000000000007412    -0.290483842579834    -0.185924701134460
2 41
   -12.537694660507507     3.123983853032950     2.208990166778763
     3.123983853087097    -8.930428823822819    -1.275361067329382
     2.208990166784901    -1.275361067318031    -8.028612364446879
2 42
   -12.537694660670672    -3.123983853026366    -2.208990166733477
    -3.123983853050447    -8.930428823848423    -1.275361067361882
    -2.208990166649994    -1.275361067306020    -8.028612364269712
2 43
    -0.271431134941616    -0.207667108727777     0.251566387066763
    -0.207667108728633    -0.031637812670272     0.145241921281601
     0.251566387063958     0.145241921281210    -0.185924701164809
2 44
    -0.028281574041693     0.000000000006143     0.000000000006616
     0.000000000008616     0.300874255387982    -0.102229970667768
     0.000000000003315    -0.102229970673116     0.031106831883806
2 45
    -0.271431134946194     0.207667108728892    -0.251566387070284
     0.207667108732738    -0.031637812686579     0.145241921290180
    -0.251566387069404     0.145241921278836    -0.185924701141982
2 46
     0.025355248053666    -0.000000000005064    -0.000000000005845
    -0.000000000005610     0.128449698792371    -0.036449392609768
    -0.000000000005288    -0.036449392615613     0.038242054375810
2 47
    -0.009451321312406     0.010871651487525    -0.004561808383729
     0.010871651487958    -0.022004823134242    -0.002633761297105
    -0.004561808387150    -0.002633761300574     0.335155657665280
2 48
    -0.009451321298842    -0.010871651482712     0.004561808382452
    -0.010871651482842    -0.022004823125985    -0.002633761296600
     0.004561808377645    -0.002633761295231     0.335155657644872
2 49
    -0.271431134942814     0.167956694706427    -0.279645890108622
     0.167956694705345    -0.077491449117017     0.161453629925318
    -0.279645890108593     0.161453629922690    -0.140071064712446
2 50
    -0.028281574037529    -0.000000000006279    -0.000000000001876
    -0.000000000005769    -0.003174570391015     0.005267522593134
    -0.000000000009132     0.005267522591883     0.335155657651657
2 51
    -0.271431134948863    -0.167956694707053     0.279645890109453
    -0.167956694711525    -0.077491449131775     0.161453629928830
     0.279645890100571     0.161453629921915    -0.140071064698097
2 52
     0.102676086109939     0.044641206657789     0.031566099944693
     0.044641206657660     0.051128860738300     0.018224696306470
     0.031566099941212     0.018224696300194     0.038242054376321
2 53
     0.102676086101787    -0.044641206667238    -0.031566099952865
    -0.044641206666218     0.051128860732886     0.018224696305199
    -0.031566099957656     0.018224696303079     0.038242054385103
2 54
     0.019478393761462     0.000000000001276    -0.000000000001583
    -0.000000000003624    -0.368400977854806    -0.322907259867154
    -0.000000000005798    -0.322907259853319    -0.140071064683255
3 1
    -3.412452429152912    -0.859522974084825    -0.607774523535137
     0.859522974098951     0.759635795621555     0.542114767478456
     0.607774523559837     0.542114767489893     0.376302767292498
3 2
    -3.412452429170511     0.859522974155417     0.607774523584308
    -0.859522974103419     0.759635795633441     0.542114767489855
    -0.607774523564475     0.542114767504391     0.376302767300587
3 3
    46.763999715979018    -0.000000000750783    -0.000000000530334
    -0.000000000750783    46.763999718334198    -0.000000000840969
    -0.000000000530334    -0.000000000840969    46.763999716909225
3 4
     0.414892931188005     0.000000000004748    -0.000000000000582
     0.000000000001370     0.414892931204296    -0.000000000014642
     0.000000000002031    -0.000000000011387    -0.248846011167018
3 5
    -0.283386260560122     0.947044220637953    -0.165597898650550
     2.666090168895311    -2.369430373079093    -0.797405560923344
    -0.773372422262464     0.255290793503695     0.376302767324343
3 6
    -0.283386260588694    -0.947044220662044     0.165597898659931
    -2.666090168849003    -2.369430373057170    -0.797405560894740
     0.773372422238178     0.255290793472630     0.376302767320169
3 7
    -0.283386260584453     2.666090168851868    -0.773372422237467
     0.947044220669976    -2.369430373051159     0.255290793472008
    -0.165597898649608    -0.797405560888840     0.376302767317348
3 8
     0.414892931197826     0.000000000010894     0.000000000013235
     0.000000000009010     0.414892931199654     0.000000000000275
     0.000000000011588    -0.000000000006563    -0.248846011172145
3 9
    -0.283386260549548    -2.666090168834907     0.773372422254674
    -0.947044220618875    -2.369430373041769     0.255290793489479
     0.165597898670078    -0.797405560878488     0.376302767311555
3 10
     0.414892931193961     0.000000000006885     0.000000000004504
     0.000000000008864    -0.175097239775929     0.208593025366504
     0.000000000000710     0.208593025361459     0.341144159800175
3 11
    -0.283386260601049     0.159554210801177     0.948081153564324
     0.159554210793669    -0.099148927508387    -0.547374909223226
     2.771404724230903    -1.600071263612163    -1.893978678120568
3 12
    -0.283386260584729    -0.159554210773103    -0.948081153545121
    -0.159554210763948    -0.099148927506774    -0.547374909220463
    -2.771404724169238    -1.600071263566662    -1.893978678089231
3 13
    -0.027599697041028    -0.255473238014063    -0.180646859003828
    -0.255473238011717     0.267395388463844    -0.104296512690902
    -0.180646859005627    -0.104296512693637     0.341144159812134
3 14
    -0.056197104523773     0.000000000004142     0.000000000005017
     0.000000000004282    -0.096764161309838    -0.028685240931149
     0.000000000004445    -0.028685240930253    -0.076480632944252
3 15
    -0.027599697036661     0.255473238040257     0.180646859022667
     0.255473238035457     0.267395388443200    -0.104296512689757
     0.180646859014609    -0.104296512685459     0.341144159815710
3 16
    -0.086622397101969     0.017566050864398    -0.024842147356907
     0.017566050865593    -0.066338868738776     0.014342620470780
    -0.024842147359919     0.014342620474772    -0.076480632938709
3 17
    -0.086622397099255    -0.017566050843044     0.024842147374969
    -0.017566050844818    -0.066338868735880     0.014342620470119
     0.024842147373381     0.014342620470625    -0.076480632942376
3 18
    -0.007030260956435     0.000000000005346     0.000000000013661
     0.000000000005611    -0.375504927159232     1.094749818458979
    -0.000000000007552     3.200142527187690    -1.893978678213218
3 19
    -0.283386260591423     0.159554210783441     2.771404724225583
     0.159554210790547    -0.099148927505810    -1.600071263596197
     0.948081153554786    -0.547374909229785    -1.893978678133119
3 20
     0.414892931198117    -0.000000000000410     0.000000000003106
     0.000000000007818    -0.175097239794010     0.208593025370742
    -0.000000000001403     0.208593025370223     0.341144159795736
3 21
    -0.283386260571526    -0.159554210768481    -2.771404724272489
    -0.159554210768266    -0.099148927499398    -1.600071263604694
    -0.948081153517061    -0.547374909216550    -1.893978678142086
3 22
    -0.086622397117262    -0.017566050848123     0.024842147369993
    -0.017566050849607    -0.066338868724856     0.014342620455913
     0.024842147369974     0.014342620455564    -0.076480632937937
3 23
    -0.086622397115034     0.017566050866395    -0.024842147355502
     0.017566050865426    -0.066338868725935     0.014342620464410
    -0.024842147356693     0.014342620464881    -0.076480632941143
3 24
    -0.007030260953195     0.000000000012464     0.000000000006730
    -0.000000000002169    -0.375504927162556     3.200142527255508
     0.000000000009377     1.094749818434357    -1.893978678199640
3 25
    -0.056197104522675     0.000000000017133     0.000000000008145
     0.000000000013738    -0.096764161317821    -0.028685240928827
     0.000000000008066    -0.028685240929053    -0.076480632938762
3 26
    -0.027599697039628    -0.255473238020764    -0.180646859008891
    -0.255473238018558     0.267395388455019    -0.104296512689756
    -0.180646859007960    -0.104296512690031     0.341144159820131
3 27
    -0.027599697043671     0.255473238040985     0.180646859024615
     0.255473238036871     0.267395388446417    -0.104296512690622
     0.180646859017887    -0.104296512693179     0.341144159817250
3 28
     0.217412647049140     0.131657003563010     0.093095560008517
     0.131657003561004     0.066951768807434     0.067340142512977
     0.093095560006453     0.067340142515603     0.019335097358924
3 29
     0.217412647060371    -0.131657003540477    -0.093095559992317
    -0.131657003541950     0.066951768801544     0.067340142520833
    -0.093095559992586     0.067340142521890     0.019335097360565
3 30
     0.087874317088651     0.000000000001423     0.000000000003976
     0.000000000002374     0.087874317076635     0.000000000001445
     0.000000000001094    -0.000000000001300     0.087874317058917
3 31
    -7.126795905048406     0.000000000002020    -0.000000000044459
     0.000000000003180    -7.126795905426541     0.000000000136828
     0.000000000048629     0.000000000133320   -15.243144038278189
3 32
     0.218585298036115    -0.130979973181470    -0.104866054099665
    -0.130979973182864     0.065779117819163     0.046953048688290
    -0.104866054104842     0.046953048692224     0.019335097362593
3 33
     0.218585298030302     0.130979973211149     0.104866054121738
     0.130979973205544     0.065779117823380     0.046953048678202
     0.104866054123263     0.046953048680161     0.019335097361588
3 34
    -0.009451321284927     0.000677030362976    -0.011770494112582
     0.000677030359299     0.293815737159924    -0.114293191205054
    -0.011770494110868    -0.114293191207819     0.019335097360115
3 35
     0.025355248064498     0.000000000014149     0.000000000011631
     0.000000000009914     0.025355248042971     0.000000000004758
     0.000000000010684     0.000000000003548     0.141336505115045
3 36
    -0.009451321286726    -0.000677030343322     0.011770494129092
    -0.000677030343417     0.293815737160586    -0.114293191206719
     0.011770494129487    -0.114293191210334     0.019335097362483
3 37
    -7.126795905172139     0.000000000035820     0.000000000063792
     0.000000000094588   -14.341327579505389     2.550722135116126
     0.000000000040057     2.550722135065396    -8.028612364386809
3 38
     0.218585298028910    -0.142528655037167    -0.088533751616552
    -0.142528655035892     0.054007383320802     0.051114985324689