54   
1    

1    
  0.1000000000000000   0.0000000000000000   0.0000000000000000
  -4.6763999717   -0.4269190189   -0.3014850019
   0.3811000283    0.0890393811    0.0630201981
   0.3036490283   -0.0836584189   -0.0590616019
   0.0259219283    0.0968273811   -0.0203454019
  -0.0411644717    0.0009658301    0.0019336781
   0.0303905283   -0.0915981189    0.0132612981
   0.0284605283    0.2574959811   -0.0788901019
   0.0273454283   -0.2745510189    0.0754613981
  -0.0421404717    0.0026665011    0.0005069741
   0.0258398283    0.0131287811    0.0984287981
  -0.0412475717    0.0022584911    0.0004544281
   0.0306715283   -0.0185437189   -0.0906576019
   0.0028912483   -0.0244809189   -0.0172748019
   0.0024380183    0.0262930811    0.0184091981
   0.0057539783    0.0003123751    0.0001384571
   0.0006510763    0.0026434311   -0.0020966819
   0.0107549283   -0.0024729189    0.0032755781
   0.0066410783    0.0004256631   -0.0019536719
   0.0284426283    0.0112172811    0.2688759981
   0.0273060283   -0.0206255189   -0.2842230019
  -0.0419479717    0.0011671111    0.0019576081
   0.0008269873   -0.0014214089    0.0026345481
   0.0109725283    0.0020416511   -0.0035895719
   0.0066556283   -0.0018112689    0.0008529041
   0.0032322383   -0.0253255189   -0.0183252019
   0.0051102383   -0.0023185389   -0.0018737019
   0.0030216883    0.0255011811    0.0177510981
  -0.0087874317   -0.0019185389   -0.0012209119
  -0.0238020717   -0.0135882189   -0.0093849719
  -0.0203640717    0.0132337811    0.0095243281
  -0.0243456717   -0.0140782189   -0.0124300019
   0.7210690283    0.0204068811    0.0296671981
  -0.0197895717    0.0120167811    0.0068134281
   0.0015415583    0.0004526801   -0.0008205759
   0.0000797095   -0.0005273879    0.0021481281
  -0.0027672717   -0.0013009789    0.0010399581
  -0.0240161717   -0.0166993189   -0.0092952819
   0.7212610283    0.0345635811    0.0092090281
  -0.0195461717    0.0104348811    0.0089198481
   0.9414380283   -0.1214220189   -0.0860188019
   1.5491300283    0.5230529811    0.3695199981
  -0.0097043417   -0.0008809189   -0.0006706509
   0.0036025383   -0.0035913289   -0.0007278899
   0.0297665283   -0.0204531189    0.0270166981
   0.0248253283    0.0200548811   -0.0236387019
   0.0016277883   -0.0007229979    0.0009848981
   0.0002385823    0.0016471011   -0.0010323319
  -0.0026467017    0.0006181131   -0.0014468119
   0.0032937483   -0.0013026489   -0.0028727119
   0.0297320283    0.0188746811   -0.0283547019
   0.0246368283   -0.0154085189    0.0269926981
  -0.0111740717    0.0049169811    0.0034591781
  -0.0014576417   -0.0022207489   -0.0014453619
  -0.0090182217   -0.0044160989   -0.0031215019
