nqpoint: 404    
npath: 4      
segment_nqpoint:
- 101
- 101
- 101
- 101
labels:
- [ 'Gamma', 'X' ]
- [ 'X', 'K' ]
- [ 'K', 'Gamma' ]
- [ 'Gamma', 'L' ]
reciprocal_lattice:
- [   0.39997193,  -0.23092390,  -0.16328786 ] # a*
- [   0.00000000,   0.46184781,  -0.16328786 ] # b*
- [   0.00000000,   0.00000000,   0.48986357 ] # c*
natom: 2      
lattice:
- [     2.500175429000000,     0.000000000000000,     0.000000000000000 ] # a
- [     1.250087714500000,     2.165215435400000,     0.000000000000000 ] # b
- [     1.250087714500000,     0.721738478500000,     2.041384689500000 ] # c
points:
- symbol: C # 1
  coordinates: [  0.999997454617902,  0.999997454587760,  0.999997454570897 ]
  mass: 12.010700
- symbol: C # 2
  coordinates: [  0.249997596000766,  0.249997596026479,  0.249997596006757 ]
  mass: 12.010700

phonon:
- q-position: [    0.0000000,    0.0000000,    0.0000000 ]
  distance:    0.0000000
  band:
  - # 1
    frequency:   -0.0000006789
    eigenvector:
    - # atom 1
      - [  0.00019315481885,  0.00000000000000 ]
      - [ -0.00814169862252,  0.00000000000000 ]
      - [  0.70705988108099,  0.00000000000000 ]
    - # atom 2
      - [  0.00019315482042,  0.00000000000000 ]
      - [ -0.00814169861995,  0.00000000000000 ]
      - [  0.70705988108172,  0.00000000000000 ]
  - # 2
    frequency:    0.0000003272
    eigenvector:
    - # atom 1
      - [ -0.67750805524027,  0.00000000000000 ]
      - [  0.20242654185931,  0.00000000000000 ]
      - [  0.00251599601511,  0.00000000000000 ]
    - # atom 2
      - [ -0.67750805523940,  0.00000000000000 ]
      - [  0.20242654185969,  0.00000000000000 ]
      - [  0.00251599601432,  0.00000000000000 ]
  - # 3
    frequency:    0.0000006914
    eigenvector:
    - # atom 1
      - [  0.20244208499355,  0.00000000000000 ]
      - [  0.67746380559732,  0.00000000000000 ]
      - [  0.00774560063908,  0.00000000000000 ]
    - # atom 2
      - [  0.20244208499268,  0.00000000000000 ]
      - [  0.67746380559726,  0.00000000000000 ]
      - [  0.00774560064129,  0.00000000000000 ]
  - # 4
    frequency:   39.3116618142
    eigenvector:
    - # atom 1
      - [ -0.20899319611346,  0.00000000000000 ]
      - [ -0.29449966316657,  0.00000000000000 ]
      - [ -0.60794061582934,  0.00000000000000 ]
    - # atom 2
      - [  0.20899319611274,  0.00000000000000 ]
      - [  0.29449966316513,  0.00000000000000 ]
      - [  0.60794061582716,  0.00000000000000 ]
  - # 5
    frequency:   39.3116618144
    eigenvector:
    - # atom 1
      - [  0.63184902976898,  0.00000000000000 ]
      - [ -0.31031010282378,  0.00000000000000 ]
      - [ -0.06689128242987,  0.00000000000000 ]
    - # atom 2
      - [ -0.63184902976991,  0.00000000000000 ]
      - [  0.31031010282306,  0.00000000000000 ]
      - [  0.06689128243007,  0.00000000000000 ]
  - # 6
    frequency:   39.3116618145
    eigenvector:
    - # atom 1
      - [  0.23893230747957,  0.00000000000000 ]
      - [  0.56300762737310,  0.00000000000000 ]
      - [ -0.35487147527022,  0.00000000000000 ]
    - # atom 2
      - [ -0.23893230748094,  0.00000000000000 ]
      - [ -0.56300762737422,  0.00000000000000 ]
      - [  0.35487147527242,  0.00000000000000 ]

- q-position: [    0.0050000,    0.0000000,    0.0050000 ]
  distance:    0.0028282
  band:
  - # 1
    frequency:    0.3849941497
    eigenvector:
    - # atom 1
      - [  0.34411215419186,  0.00000000000000 ]
      - [ -0.03085418013972,  0.35038016760368 ]
      - [ -0.44326679604097,  0.24775619181535 ]
    - # atom 2
      - [  0.34514942292254,  0.00068081427042 ]
      - [ -0.03025396337378,  0.34941025599143 ]
      - [ -0.44411276825417,  0.24623653695189 ]
  - # 2
    frequency:    0.4166839306
    eigenvector:
    - # atom 1
      - [ -0.50000000008501,  0.00000000000000 ]
      - [  0.28867513437533,  0.00000000031350 ]
      - [ -0.40824829051480, -0.00000000045477 ]
    - # atom 2
      - [ -0.50000000008541,  0.00000000444303 ]
      - [  0.28867513437522, -0.00000000225074 ]
      - [ -0.40824829051467,  0.00000000317232 ]
  - # 3
    frequency:    0.3849941497
    eigenvector:
    - # atom 1
      - [ -0.36274898380725,  0.00000000000000 ]
      - [ -0.42716829687549,  0.33237880596660 ]
      - [  0.14222135837377,  0.23502730789900 ]
    - # atom 2
      - [ -0.36176096410412,  0.00064584243285 ]
      - [ -0.42659658335216,  0.33418436913463 ]
      - [  0.14141554881809,  0.23551304165252 ]
  - # 4
    frequency:   39.3101893784
    eigenvector:
    - # atom 1
      - [  0.10587638082516,  0.00000000000000 ]
      - [ -0.50312647807062, -0.00200905519882 ]
      - [ -0.48543576773282, -0.00142061680785 ]
    - # atom 2
      - [ -0.10586980062767, -0.00167367307774 ]
      - [  0.50312696755897,  0.00146147268775 ]
      - [  0.48542805478807,  0.00308324001938 ]
  - # 5
    frequency:   39.3121387785
    eigenvector:
    - # atom 1
      - [ -0.49999999729834,  0.00000000000000 ]
      - [  0.28867517005246,  0.00000000008665 ]
      - [ -0.40824826870050, -0.00000000009213 ]
    - # atom 2
      - [  0.49999999729812, -0.00000000434201 ]
      - [ -0.28867517005317,  0.00000000254693 ]
      - [  0.40824826870000, -0.00000000360966 ]
  - # 6
    frequency:   39.3101893786
    eigenvector:
    - # atom 1
      - [ -0.48866163619038,  0.00000000000000 ]
      - [ -0.40438368843921, -0.00043529411949 ]
      - [  0.31254336277816, -0.00030779932152 ]
    - # atom 2
      - [  0.48866006111981, -0.00036263276379 ]
      - [  0.40438206197852, -0.00170668018398 ]
      - [ -0.31254258380108, -0.00076267261600 ]

- q-position: [    0.0100000,    0.0000000,    0.0100000 ]
  distance:    0.0056565
  band:
  - # 1
    frequency:    0.7697310512
    eigenvector:
    - # atom 1
      - [  0.33485270304609,  0.00000000000000 ]
      - [ -0.15162974653055,  0.25462952256943 ]
      - [ -0.51732755264239,  0.18005026171226 ]
    - # atom 2
      - [  0.33635614395380,  0.00204742091176 ]
      - [ -0.15075362853658,  0.25315568827976 ]
      - [ -0.51854937520960,  0.17650053523090 ]
  - # 2
    frequency:    0.8333204692
    eigenvector:
    - # atom 1
      - [ -0.50000000007613,  0.00000000000000 ]
      - [  0.28867513438258,  0.00000000015535 ]
      - [ -0.40824829052055, -0.00000000022602 ]
    - # atom 2
      - [ -0.50000000007653,  0.00000000888606 ]
      - [  0.28867513438246, -0.00000000497321 ]
      - [ -0.40824829052042,  0.00000000702812 ]
  - # 3
    frequency:    0.7697310511
    eigenvector:
    - # atom 1
      - [ -0.37131343523681,  0.00000000000000 ]
      - [ -0.52546226229904,  0.22962644423477 ]
      - [  0.08320629688548,  0.16237041596145 ]
    - # atom 2
      - [ -0.36994181064626,  0.00184638853184 ]
      - [ -0.52466304435549,  0.23362555008299 ]
      - [  0.08209153912936,  0.16293685594120 ]
  - # 4
    frequency:   39.3057748218
    eigenvector:
    - # atom 1
      - [  0.10574147152377,  0.00000000000000 ]
      - [ -0.50322728655369, -0.00403373846668 ]
      - [ -0.48534176896254, -0.00285228395026 ]
    - # atom 2
      - [ -0.10571504670073, -0.00334915782480 ]
      - [  0.50322929066198,  0.00293680776255 ]
      - [  0.48531082241244,  0.00617850068031 ]
  - # 5
    frequency:   39.3135706881
    eigenvector:
    - # atom 1
      - [ -0.49999999932249,  0.00000000000000 ]
      - [  0.28867514346018,  0.00000000004327 ]
      - [ -0.40824828502502, -0.00000000004598 ]
    - # atom 2
      - [  0.49999999932227, -0.00000000883481 ]
      - [ -0.28867514346090,  0.00000000512083 ]
      - [  0.40824828502451, -0.00000000724580 ]
  - # 6
    frequency:   39.3057748221
    eigenvector:
    - # atom 1
      - [ -0.48869084488737,  0.00000000000000 ]
      - [ -0.40424241090662, -0.00087280837630 ]
      - [  0.31267905055196, -0.00061716867061 ]
    - # atom 2
      - [  0.48868454809407, -0.00072468995083 ]
      - [  0.40423590789307, -0.00341298955219 ]
      - [ -0.31267593691278, -0.00152578780692 ]

- q-position: [    0.0150000,    0.0000000,    0.0150000 ]
  distance:    0.0084847
  band:
  - # 1
    frequency:    1.1539546769
    eigenvector:
    - # atom 1
      - [  0.33488335954150,  0.00000000000000 ]
      - [ -0.18967301210530,  0.19261719783047 ]
      - [ -0.54426575007455,  0.13620092648932 ]
    - # atom 2
      - [  0.33658192977491,  0.00341283421974 ]
      - [ -0.18867206336354,  0.19059882091903 ]
      - [ -0.54563828761451,  0.13059386728095 ]
  - # 2
    frequency:    1.2498626962
    eigenvector:
    - # atom 1
      - [ -0.50000000007752,  0.00000000000000 ]
      - [  0.28867513438373,  0.00000000010203 ]
      - [ -0.40824829051804, -0.00000000014920 ]
    - # atom 2
      - [ -0.50000000007792,  0.00000001332907 ]
      - [  0.28867513438361, -0.00000000759080 ]
      - [ -0.40824829051792,  0.00000001073204 ]
  - # 3
    frequency:    1.1539546768
    eigenvector:
    - # atom 1
      - [ -0.37128578672695,  0.00000000000000 ]
      - [ -0.55982725478158,  0.17373219382447 ]
      - [  0.05887271531742,  0.12284721241833 ]
    - # atom 2
      - [ -0.36971811079521,  0.00307824347897 ]
      - [ -0.55890386590284,  0.17991130436387 ]
      - [  0.05760564679686,  0.12344644046941 ]
  - # 4
    frequency:   39.2984263823
    eigenvector:
    - # atom 1
      - [  0.10555152534163,  0.00000000000000 ]
      - [ -0.50336592244581, -0.00609049351121 ]
      - [ -0.48520715416452, -0.00430662934768 ]
    - # atom 2
      - [ -0.10549166974571, -0.00502818979542 ]
      - [  0.50337061069343,  0.00444113763396 ]
      - [  0.48513716141991,  0.00929860828666 ]
  - # 5
    frequency:   39.3159605675
    eigenvector:
    - # atom 1
      - [ -0.49999999969764,  0.00000000000000 ]
      - [  0.28867513853605,  0.00000000002878 ]
      - [ -0.40824828804744, -0.00000000003056 ]
    - # atom 2
      - [  0.49999999969742, -0.00000001329409 ]
      - [ -0.28867513853676,  0.00000000768873 ]
      - [  0.40824828804692, -0.00000001087605 ]
  - # 6
    frequency:   39.2984263825
    eigenvector:
    - # atom 1
      - [ -0.48873190585396,  0.00000000000000 ]
      - [ -0.40404280492904, -0.00131536510483 ]
      - [  0.31287048551356, -0.00093010355156 ]
    - # atom 2
      - [  0.48871775692264, -0.00108595280256 ]
      - [  0.40402818497883, -0.00511807777492 ]
      - [ -0.31286349454957, -0.00228901240976 ]

- q-position: [    0.0200000,    0.0000000,    0.0200000 ]
  distance:    0.0113129
  band:
  - # 1
    frequency:    1.5374114329
    eigenvector:
    - # atom 1
      - [  0.33309619215574,  0.00000000000000 ]
      - [ -0.21033194679021,  0.15255427691462 ]
      - [ -0.55668499878040,  0.10787216350107 ]
    - # atom 2
      - [  0.33487932071381,  0.00478922444491 ]
      - [ -0.20926447317145,  0.15002230710448 ]
      - [ -0.55811405850323,  0.10021621240178 ]
  - # 2
    frequency:    1.6662646306
    eigenvector:
    - # atom 1
      - [ -0.50000000007631,  0.00000000000000 ]
      - [  0.28867513438665,  0.00000000007493 ]
      - [ -0.40824829051746, -0.00000000011036 ]
    - # atom 2
      - [ -0.50000000007671,  0.00000001777207 ]
      - [  0.28867513438652, -0.00000001018221 ]
      - [ -0.40824829051734,  0.00000001439796 ]
  - # 3
    frequency:    1.5374114328
    eigenvector:
    - # atom 1
      - [ -0.37288996593608,  0.00000000000000 ]
      - [ -0.57496408422256,  0.13627411124430 ]
      - [  0.05013407083785,  0.09636034819739 ]
    - # atom 2
      - [ -0.37123389014791,  0.00427815563580 ]
      - [ -0.57397401770929,  0.14464501865236 ]
      - [  0.04880588325399,  0.09703982441709 ]
  - # 4
    frequency:   39.2881577370
    eigenvector:
    - # atom 1
      - [  0.10531319367449,  0.00000000000000 ]
      - [ -0.50353629781624, -0.00819226064968 ]
      - [ -0.48503572890940, -0.00579280312300 ]
    - # atom 2
      - [ -0.10520581815976, -0.00671248877712 ]
      - [  0.50354506139888,  0.00598619865500 ]
      - [  0.48491041808497,  0.01245396793095 ]
  - # 5
    frequency:   39.3193133651
    eigenvector:
    - # atom 1
      - [ -0.49999999982914,  0.00000000000000 ]
      - [  0.28867513681243,  0.00000000002152 ]
      - [ -0.40824828910517, -0.00000000002282 ]
    - # atom 2
      - [  0.49999999982893, -0.00000001774501 ]
      - [ -0.28867513681315,  0.00000001025514 ]
      - [  0.40824828910465, -0.00000001450485 ]
  - # 6
    frequency:   39.2881577373
    eigenvector:
    - # atom 1
      - [ -0.48878331744053,  0.00000000000000 ]
      - [ -0.40379157178297, -0.00176510349760 ]
      - [  0.31311110130660, -0.00124811662747 ]
    - # atom 2
      - [  0.48875820886838, -0.00144629021134 ]
      - [  0.40376560618977, -0.00682181871259 ]
      - [ -0.31309871015980, -0.00305241777823 ]

- q-position: [    0.0250000,    0.0000000,    0.0250000 ]
  distance:    0.0141411
  band:
  - # 1
    frequency:    1.9198513551
    eigenvector:
    - # atom 1
      - [  0.33301483083308,  0.00000000000000 ]
      - [ -0.21950706147222,  0.12613858519426 ]
      - [ -0.56307313772343,  0.08919344879649 ]
    - # atom 2
      - [  0.33484386199094,  0.00613147254218 ]
      - [ -0.21839019297888,  0.12304831167838 ]
      - [ -0.56452348896922,  0.07949880588749 ]
  - # 2
    frequency:    2.0824816804
    eigenvector:
    - # atom 1
      - [ -0.50000000007537,  0.00000000000000 ]
      - [  0.28867513438932,  0.00000000005834 ]
      - [ -0.40824829051672, -0.00000000008675 ]
    - # atom 2
      - [ -0.50000000007576,  0.00000002221506 ]
      - [  0.28867513438918, -0.00000001276311 ]
      - [ -0.40824829051661,  0.00000001804866 ]
  - # 3
    frequency:    1.9198513551
    eigenvector:
    - # atom 1
      - [ -0.37296262865149,  0.00000000000000 ]
      - [ -0.58299855657329,  0.11262795881905 ]
      - [  0.04454183424390,  0.07963999345741 ]
    - # atom 2
      - [ -0.37123041364279,  0.00547476405974 ]
      - [ -0.58194410480237,  0.12317695512939 ]
      - [  0.04316592279247,  0.08039407107969 ]
  - # 4
    frequency:   39.2749879254
    eigenvector:
    - # atom 1
      - [  0.10496927787997,  0.00000000000000 ]
      - [ -0.50378466354721, -0.01035967402495 ]
      - [ -0.48479013934694, -0.00732539580597 ]
    - # atom 2
      - [ -0.10479950070843, -0.00840399471299 ]
      - [  0.50379925263003,  0.00759012136140 ]
      - [  0.48459252166406,  0.01565977576073 ]
  - # 5
    frequency:   39.3236358173
    eigenvector:
    - # atom 1
      - [ -0.49999999988993,  0.00000000000000 ]
      - [  0.28867513601471,  0.00000000001715 ]
      - [ -0.40824828959479, -0.00000000001815 ]
    - # atom 2
      - [  0.49999999988972, -0.00000002219256 ]
      - [ -0.28867513601542,  0.00000001282094 ]
      - [  0.40824828959427, -0.00000001813305 ]
  - # 6
    frequency:   39.2749879256
    eigenvector:
    - # atom 1
      - [ -0.48885729084330,  0.00000000000000 ]
      - [ -0.40342955706885, -0.00222446822498 ]
      - [  0.31345768339977, -0.00157293654646 ]
    - # atom 2
      - [  0.48881814736972, -0.00180456011944 ]
      - [  0.40338904233036, -0.00852346651079 ]
      - [ -0.31343839087870, -0.00381687523785 ]

- q-position: [    0.0300000,    0.0000000,    0.0300000 ]
  distance:    0.0169694
  band:
  - # 1
    frequency:    2.3010292810
    eigenvector:
    - # atom 1
      - [  0.33276787161059,  0.00000000000000 ]
      - [ -0.22511642482540,  0.10769464419782 ]
      - [ -0.56673709454612,  0.07615161307416 ]
    - # atom 2
      - [  0.33462466613469,  0.00746920232088 ]
      - [ -0.22395524903324,  0.10404127907582 ]
      - [ -0.56819011884090,  0.06442042658616 ]
  - # 2
    frequency:    2.4984710727
    eigenvector:
    - # atom 1
      - [ -0.50000000007429,  0.00000000000000 ]
      - [  0.28867513439253,  0.00000000004702 ]
      - [ -0.40824829051577, -0.00000000007075 ]
    - # atom 2
      - [ -0.50000000007468,  0.00000002665803 ]
      - [  0.28867513439238, -0.00000001533877 ]
      - [ -0.40824829051567,  0.00000002169176 ]
  - # 3
    frequency:    2.3010292809
    eigenvector:
    - # atom 1
      - [ -0.37318298936347,  0.00000000000000 ]
      - [ -0.58751091829172,  0.09603148731716 ]
      - [  0.04162099832280,  0.06790451590757 ]
    - # atom 2
      - [ -0.37138414571378,  0.00666033542049 ]
      - [ -0.58639285494101,  0.10876371240656 ]
      - [  0.04020846396445,  0.06875034696072 ]
  - # 4
    frequency:   39.2589412402
    eigenvector:
    - # atom 1
      - [  0.10456125798560,  0.00000000000000 ]
      - [ -0.50407546208687, -0.01260833966585 ]
      - [ -0.48449604385132, -0.00891544252116 ]
    - # atom 2
      - [ -0.10431320931078, -0.01010438412343 ]
      - [  0.50409807186133,  0.00926758371966 ]
      - [  0.48420823503166,  0.01892846397115 ]
  - # 5
    frequency:   39.3289362585
    eigenvector:
    - # atom 1
      - [ -0.49999999992290,  0.00000000000000 ]
      - [  0.28867513558133,  0.00000000001422 ]
      - [ -0.40824828986086, -0.00000000001502 ]
    - # atom 2
      - [  0.49999999992270, -0.00000002663845 ]
      - [ -0.28867513558204,  0.00000001538645 ]
      - [  0.40824828986032, -0.00000002176095 ]
  - # 6
    frequency:   39.2589412404
    eigenvector:
    - # atom 1
      - [ -0.48894472428362,  0.00000000000000 ]
      - [ -0.40299919892222, -0.00269630450680 ]
      - [  0.31386907648632, -0.00190657518446 ]
    - # atom 2
      - [  0.48888852160043, -0.00216085867352 ]
      - [  0.40294095896663, -0.01022230509061 ]
      - [ -0.31384142440696, -0.00458176068754 ]

- q-position: [    0.0350000,    0.0000000,    0.0350000 ]
  distance:    0.0197976
  band:
  - # 1
    frequency:    2.6807059887
    eigenvector:
    - # atom 1
      - [  0.33260235562523,  0.00000000000000 ]
      - [ -0.22867158947687,  0.09405336846610 ]
      - [ -0.56904826072480,  0.06650577452082 ]
    - # atom 2
      - [  0.33447380326923,  0.00880551349522 ]
      - [ -0.22746821484619,  0.08982765728643 ]
      - [ -0.57048939226818,  0.05273323799679 ]
  - # 2
    frequency:    2.9141922550
    eigenvector:
    - # atom 1
      - [ -0.50000000007270,  0.00000000000000 ]
      - [  0.28867513439629,  0.00000000003874 ]
      - [ -0.40824829051507, -0.00000000005912 ]
    - # atom 2
      - [ -0.50000000007308,  0.00000003110099 ]
      - [  0.28867513439613, -0.00000001791142 ]
      - [ -0.40824829051498,  0.00000002533048 ]
  - # 3
    frequency:    2.6807059886
    eigenvector:
    - # atom 1
      - [ -0.37333051437118,  0.00000000000000 ]
      - [ -0.59034626975311,  0.08379270025546 ]
      - [  0.03979678256891,  0.05925038657769 ]
    - # atom 2
      - [ -0.37146762298839,  0.00784492550453 ]
      - [ -0.58916124091293,  0.09871627124497 ]
      - [  0.03835315782964,  0.06019491254667 ]
  - # 4
    frequency:   39.2400470893
    eigenvector:
    - # atom 1
      - [  0.10409988819343,  0.00000000000000 ]
      - [ -0.50439840649671, -0.01494869069313 ]
      - [ -0.48415933923908, -0.01057032059719 ]
    - # atom 2
      - [ -0.10375659438529, -0.01181537912138 ]
      - [  0.50443171483962,  0.01102785347479 ]
      - [  0.48376244446116,  0.02226869499473 ]
  - # 5
    frequency:   39.3352243809
    eigenvector:
    - # atom 1
      - [ -0.49999999994284,  0.00000000000000 ]
      - [  0.28867513531999,  0.00000000001212 ]
      - [ -0.40824829002123, -0.00000000001277 ]
    - # atom 2
      - [  0.49999999994265, -0.00000003108338 ]
      - [ -0.28867513532071,  0.00000001795178 ]
      - [  0.40824829002068, -0.00000002538868 ]
  - # 6
    frequency:   39.2400470895
    eigenvector:
    - # atom 1
      - [ -0.48904316101391,  0.00000000000000 ]
      - [ -0.40251127314878, -0.00318204436722 ]
      - [  0.31433465214996, -0.00225004513618 ]
    - # atom 2
      - [  0.48896691119104, -0.00251510560860 ]
      - [  0.40243214967504, -0.01191900445205 ]
      - [ -0.31429721431638, -0.00534764619223 ]

- q-position: [    0.0400000,    0.0000000,    0.0400000 ]
  distance:    0.0226258
  band:
  - # 1
    frequency:    3.0586492961
    eigenvector:
    - # atom 1
      - [  0.33241374823881,  0.00000000000000 ]
      - [ -0.23110900879376,  0.08395611475069 ]
      - [ -0.57054078052459,  0.05936593796297 ]
    - # atom 2
      - [  0.33429964612005,  0.01014470069330 ]
      - [ -0.22985796036852,  0.07915208698414 ]
      - [ -0.57196589945854,  0.04354430720590 ]
  - # 2
    frequency:    3.3296072624
    eigenvector:
    - # atom 1
      - [ -0.50000000007133,  0.00000000000000 ]
      - [  0.28867513440041,  0.00000000003237 ]
      - [ -0.40824829051384, -0.00000000005026 ]
    - # atom 2
      - [ -0.50000000007171,  0.00000003554391 ]
      - [  0.28867513440023, -0.00000002048217 ]
      - [ -0.40824829051376,  0.00000002896647 ]
  - # 3
    frequency:    3.0586492960
    eigenvector:
    - # atom 1
      - [ -0.37349846038679,  0.00000000000000 ]
      - [ -0.59213464724052,  0.07472096872028 ]
      - [  0.03873789973551,  0.05283570368812 ]
    - # atom 2
      - [ -0.37156333474777,  0.00902883439025 ]
      - [ -0.59087302030928,  0.09184773176827 ]
      - [  0.03725996949100,  0.05388813536601 ]
  - # 4
    frequency:   39.2183398280
    eigenvector:
    - # atom 1
      - [  0.10355454897731,  0.00000000000000 ]
      - [ -0.50477652389172, -0.01740752873733 ]
      - [ -0.48375880687555, -0.01230898164789 ]
    - # atom 2
      - [ -0.10309738616797, -0.01353891093760 ]
      - [  0.50482397389433,  0.01289526963976 ]
      - [  0.48323245128587,  0.02570004437669 ]
  - # 5
    frequency:   39.3425109449
    eigenvector:
    - # atom 1
      - [ -0.49999999995570,  0.00000000000000 ]
      - [  0.28867513515040,  0.00000000001054 ]
      - [ -0.40824829012539, -0.00000000001107 ]
    - # atom 2
      - [  0.49999999995552, -0.00000003552771 ]
      - [ -0.28867513515113,  0.00000002051701 ]
      - [  0.40824829012483, -0.00000002901631 ]
  - # 6
    frequency:   39.2183398282
    eigenvector:
    - # atom 1
      - [ -0.48915892655618,  0.00000000000000 ]
      - [ -0.40193373186955, -0.00368515976012 ]
      - [  0.31488481886275, -0.00260580144415 ]
    - # atom 2
      - [  0.48905972204356, -0.00286621281837 ]
      - [  0.40183062354896, -0.01361189649129 ]
      - [ -0.31483622723845, -0.00611468487666 ]

- q-position: [    0.0450000,    0.0000000,    0.0450000 ]
  distance:    0.0254541
  band:
  - # 1
    frequency:    3.4346351112
    eigenvector:
    - # atom 1
      - [  0.33259913374645,  0.00000000000000 ]
      - [ -0.23230554583805,  0.07602406453507 ]
      - [ -0.57161390993430,  0.05375713147919 ]
    - # atom 2
      - [  0.33449370443195,  0.01148080363862 ]
      - [ -0.23100457370842,  0.07061691406774 ]
      - [ -0.57301434945090,  0.03587264334048 ]
  - # 2
    frequency:    3.7446810443
    eigenvector:
    - # atom 1
      - [ -0.50000000006962,  0.00000000000000 ]
      - [  0.28867513440496,  0.00000000002729 ]
      - [ -0.40824829051271, -0.00000000004324 ]
    - # atom 2
      - [ -0.50000000006999,  0.00000003998682 ]
      - [  0.28867513440477, -0.00000002305167 ]
      - [ -0.40824829051265,  0.00000003260061 ]
  - # 3
    frequency:    3.4346351111
    eigenvector:
    - # atom 1
      - [ -0.37333338474119,  0.00000000000000 ]
      - [ -0.59357721433552,  0.06772911030206 ]
      - [  0.03751567520273,  0.04789171318425 ]
    - # atom 2
      - [ -0.37131864600710,  0.01022819142559 ]
      - [ -0.59222946231386,  0.08706933511454 ]
      - [  0.03600113886382,  0.04904039230780 ]
  - # 4
    frequency:   39.1938585628
    eigenvector:
    - # atom 1
      - [  0.10294886407367,  0.00000000000000 ]
      - [ -0.50518809131111, -0.01999803791388 ]
      - [ -0.48330801928337, -0.01414074825017 ]
    - # atom 2
      - [ -0.10235753902263, -0.01527665058150 ]
      - [  0.50525387476781,  0.01488213425892 ]
      - [  0.48263031288595,  0.02923325753570 ]
  - # 5
    frequency:   39.3508074443
    eigenvector:
    - # atom 1
      - [ -0.49999999996459,  0.00000000000000 ]
      - [  0.28867513503407,  0.00000000000930 ]
      - [ -0.40824829019676, -0.00000000000974 ]
    - # atom 2
      - [  0.49999999996443, -0.00000003997163 ]
      - [ -0.28867513503480,  0.00000002308216 ]
      - [  0.40824829019618, -0.00000003264387 ]
  - # 6
    frequency:   39.1938585631
    eigenvector:
    - # atom 1
      - [ -0.48928675786345,  0.00000000000000 ]
      - [ -0.40129045900997, -0.00420770694990 ]
      - [  0.31549624227315, -0.00297529810705 ]
    - # atom 2
      - [  0.48916175873574, -0.00321433962049 ]
      - [  0.40116029753219, -0.01530118323596 ]
      - [ -0.31543518829719, -0.00688282447223 ]

- q-position: [    0.0500000,    0.0000000,    0.0500000 ]
  distance:    0.0282823
  band:
  - # 1
    frequency:    3.8084484280
    eigenvector:
    - # atom 1
      - [  0.33249234597395,  0.00000000000000 ]
      - [ -0.23354154071867,  0.06983091878671 ]
      - [ -0.57235710252155,  0.04937791613371 ]
    - # atom 2
      - [  0.33439671054687,  0.01283288057186 ]
      - [ -0.23218395208369,  0.06382740897595 ]
      - [ -0.57372950313672,  0.02941578896944 ]
  - # 2
    frequency:    4.1593817448
    eigenvector:
    - # atom 1
      - [ -0.50000000006776,  0.00000000000000 ]
      - [  0.28867513440994,  0.00000000002314 ]
      - [ -0.40824829051147, -0.00000000003754 ]
    - # atom 2
      - [ -0.50000000006812,  0.00000004442970 ]
      - [  0.28867513440974, -0.00000002562027 ]
      - [ -0.40824829051142,  0.00000003623344 ]
  - # 3
    frequency:    3.8084484278
    eigenvector:
    - # atom 1
      - [ -0.37342849355909,  0.00000000000000 ]
      - [ -0.59446010631119,  0.06217588212409 ]
      - [  0.03700786032829,  0.04396498787951 ]
    - # atom 2
      - [ -0.37132680991792,  0.01142616816260 ]
      - [ -0.59301688697767,  0.08375149426239 ]
      - [  0.03545434424392,  0.04522710867511 ]
  - # 4
    frequency:   39.1666469282
    eigenvector:
    - # atom 1
      - [  0.10230640261925,  0.00000000000000 ]
      - [ -0.50561107357418, -0.02273671725088 ]
      - [ -0.48282026137692, -0.01607728697838 ]
    - # atom 2
      - [ -0.10155862786399, -0.01703020167876 ]
      - [  0.50570028869036,  0.01700445245868 ]
      - [  0.48196751269192,  0.03288161583720 ]
  - # 5
    frequency:   39.3601257281
    eigenvector:
    - # atom 1
      - [ -0.49999999997094,  0.00000000000000 ]
      - [  0.28867513495087,  0.00000000000830 ]
      - [ -0.40824829024781, -0.00000000000866 ]
    - # atom 2
      - [  0.49999999997079, -0.00000004441528 ]
      - [ -0.28867513495161,  0.00000002564726 ]
      - [  0.40824829024722, -0.00000003627138 ]
  - # 6
    frequency:   39.1666469284
    eigenvector:
    - # atom 1
      - [ -0.48942149524856,  0.00000000000000 ]
      - [ -0.40060524401160, -0.00475277807781 ]
      - [  0.31614578141734, -0.00336072159906 ]
    - # atom 2
      - [  0.48926796753217, -0.00355995985245 ]
      - [  0.40044500562085, -0.01698618700348 ]
      - [ -0.31607105478781, -0.00765100545486 ]

- q-position: [    0.0550000,    0.0000000,    0.0550000 ]
  distance:    0.0311105
  band:
  - # 1
    frequency:    4.1798842580
    eigenvector:
    - # atom 1
      - [  0.33237263875151,  0.00000000000000 ]
      - [ -0.23451877844792,  0.06487546669035 ]
      - [ -0.57290150314272,  0.04587388236085 ]
    - # atom 2
      - [  0.33428685756650,  0.01419671041164 ]
      - [ -0.23309837785848,  0.05826964153138 ]
      - [ -0.57424155793143,  0.02381551032765 ]
  - # 2
    frequency:    4.5736809329
    eigenvector:
    - # atom 1
      - [ -0.50000000006584,  0.00000000000000 ]
      - [  0.28867513441516,  0.00000000001966 ]
      - [ -0.40824829051012, -0.00000000003280 ]
    - # atom 2
      - [ -0.50000000006620,  0.00000004887255 ]
      - [  0.28867513441495, -0.00000002818823 ]
      - [ -0.40824829051010,  0.00000003986532 ]
  - # 3
    frequency:    4.1798842579
    eigenvector:
    - # atom 1
      - [ -0.37353504379692,  0.00000000000000 ]
      - [ -0.59508524340023,  0.05772639114406 ]
      - [  0.03669631850187,  0.04081872263247 ]
    - # atom 2
      - [ -0.37133700883979,  0.01263234224786 ]
      - [ -0.59353571549315,  0.08155866796523 ]
      - [  0.03509996815073,  0.04219929080334 ]
  - # 4
    frequency:   39.1367528365
    eigenvector:
    - # atom 1
      - [  0.10160036940947,  0.00000000000000 ]
      - [ -0.50606410310656, -0.02564440788020 ]
      - [ -0.48227589095903, -0.01813333473800 ]
    - # atom 2
      - [ -0.10067147717007, -0.01880149493500 ]
      - [  0.50618293830558,  0.01928049823792 ]
      - [  0.48122226412565,  0.03666040557135 ]
  - # 5
    frequency:   39.3704775841
    eigenvector:
    - # atom 1
      - [ -0.49999999997566,  0.00000000000000 ]
      - [  0.28867513488929,  0.00000000000748 ]
      - [ -0.40824829028558, -0.00000000000777 ]
    - # atom 2
      - [  0.49999999997552, -0.00000004885873 ]
      - [ -0.28867513489003,  0.00000002821233 ]
      - [  0.40824829028496, -0.00000003989885 ]
  - # 6
    frequency:   39.1367528367
    eigenvector:
    - # atom 1
      - [ -0.48956854980621,  0.00000000000000 ]
      - [ -0.39984976023338, -0.00532199488436 ]
      - [  0.31686009347301, -0.00376321866397 ]
    - # atom 2
      - [  0.48938382934424, -0.00390193212415 ]
      - [  0.39965647375393, -0.01866721293232 ]
      - [ -0.31677053221591, -0.00842084150161 ]

- q-position: [    0.0600000,    0.0000000,    0.0600000 ]
  distance:    0.0339387
  band:
  - # 1
    frequency:    4.5487484939
    eigenvector:
    - # atom 1
      - [  0.33241684136698,  0.00000000000000 ]
      - [ -0.23504902860137,  0.06078947111962 ]
      - [ -0.57333058355160,  0.04298464719190 ]
    - # atom 2
      - [  0.33433859878497,  0.01556821918820 ]
      - [ -0.23356089385822,  0.05356307350045 ]
      - [ -0.57463197592630,  0.01880771582363 ]
  - # 2
    frequency:    4.9875537767
    eigenvector:
    - # atom 1
      - [ -0.50000000006384,  0.00000000000000 ]
      - [  0.28867513442054,  0.00000000001672 ]
      - [ -0.40824829050877, -0.00000000002880 ]