# LAMMPS data file written by OVITO Basic 3.15.0

2 atoms
3 atom types

0.0 2.500175429 xlo xhi
0.0 2.1652154354 ylo yhi
0.0 2.0413846895 zlo zhi
1.2500877145 1.2500877145 0.7217384785 xy xz yz

Masses

1 196.96655  # Au
2 12.0107  # C
3 15.9994  # O

Atoms  # atomic

1 2 5.0003381301 2.8869465654 2.0413794933
2 2 1.2500756937 0.7217315383 0.5103412649
