ITEM: TIMESTEP
25
ITEM: NUMBER OF ATOMS
2
ITEM: BOX BOUNDS xy xz yz pp pp pp
-2.9776670318137608e-02 5.0896808785887293e+00 1.2798643892498132e+00
-2.5787356773188407e-02 2.9299328423012234e+00 1.2798643900207789e+00
-2.4312553754133791e-02 2.0656972432541343e+00 7.3893005012803636e-01
ITEM: ATOMS id type x y z fx fy fz
1 2 5.08967 2.92993 2.06569 1.08519e-06 6.32291e-07 4.48485e-07
2 2 1.25008 0.713135 0.498185 -1.08519e-06 -6.32291e-07 -4.48485e-07
