128  
1    

1    
  0.0500000000000000   0.0000000000000000   0.0000000000000000
  -2.2455399752   -0.1107199946   -0.0782911936
   0.1519670248    0.0501620054    0.0354699064
  -0.0061381052   -0.0001729406   -0.0001222846
   0.1484410248   -0.0430178946   -0.0304182936
   0.0040181348    0.0368283054   -0.0090224036
   0.0010733948   -0.0010644446   -0.0001264906
   0.0026071948    0.0008785804    0.0003951714
   0.0050854448   -0.0429395946    0.0092497164
  -0.0036432552   -0.0012179746    0.0007370704
   0.0034949548    0.0006041864    0.0000269752
  -0.0033016452    0.0014211354   -0.0008060556
   0.0036117948    0.0003602074    0.0000639202
   0.0035303048    0.1265620054   -0.0420338936
   0.0032945948   -0.1365709946    0.0423609064
   0.0029789048    0.0002388244   -0.0017464136
   0.0015864148   -0.0013410646    0.0019220164
   0.0040181348    0.0037697054    0.0377295064
   0.0010733948   -0.0004740746   -0.0009614056
   0.0026071948    0.0006654294    0.0006966124
   0.0050854448   -0.0055924746   -0.0435669936
   0.0001618468    0.0016538754    0.0011694664
   0.0019944048    0.0003271164    0.0002313084
   0.0006931798   -0.0028800046   -0.0020364636
   0.0012973148    0.0004869494    0.0003443274
  -0.0001864832    0.0001080244    0.0024249964
  -0.0004845432    0.0004519964   -0.0023384436
  -0.0007668772    0.0037205254   -0.0002080036
  -0.0002269942   -0.0028745646   -0.0003399266
  -0.0036148952   -0.0007780296    0.0006928944
   0.0051392648   -0.0021574946    0.0029736064
  -0.0064478852    0.0005176374   -0.0008883136
   0.0054959948    0.0025146754   -0.0036588736
  -0.0036432552    0.0002889234   -0.0013940036
   0.0034949548    0.0002268264    0.0005606444
  -0.0033016452   -0.0002862486    0.0016085464
   0.0036117948    0.0001803314    0.0003183024
  -0.0001864832    0.0023223154   -0.0007064836
  -0.0004845432   -0.0020540446    0.0012056364
  -0.0007668772    0.0010440654    0.0035770764
  -0.0002269942   -0.0012786746   -0.0025968536
  -0.0039741252    0.0001460764    0.0001032944
  -0.0000313607   -0.0008250576   -0.0005834016
   0.0044712748    0.0000235495    0.0000166543
   0.0001926098    0.0008837814    0.0006249304
  -0.0000915973    0.0021660254    0.0015902364
  -0.0007022742    0.0007377424   -0.0039545936
  -0.0003459752   -0.0003894726    0.0034530464
  -0.0003687122   -0.0022902746   -0.0012653536
   0.0035303048    0.0025575254    0.1333350064
   0.0032945948   -0.0055852546   -0.1428799936
   0.0029789048   -0.0015669346    0.0008073064
   0.0015864148    0.0013650754   -0.0019050436
  -0.0036148952    0.0003939214   -0.0009644956
   0.0051392648    0.0020843754   -0.0030253036
  -0.0064478852   -0.0006649666    0.0007841404
   0.0054959948   -0.0026113946    0.0035904864
  -0.0000915973    0.0022212954    0.0015120664
  -0.0007022742   -0.0034825146    0.0020137464
  -0.0003459752    0.0031257354   -0.0015182136
  -0.0003687122   -0.0019564046   -0.0017375036
   0.0005104538    0.0002330574    0.0001647984
   0.0010708748    0.0002306584    0.0001631024
   0.0007259148   -0.0007549086   -0.0005337986
   0.0020162748   -0.0000120701   -0.0000085326
   0.0005471818    0.0003071144    0.0002171654
   0.0013620448   -0.0109145946   -0.0077177936
   0.0019632948    0.0120898054    0.0085487764
   0.0011861848   -0.0009796446   -0.0006927106
  -0.0268916752    0.0047330954   -0.0171383936
   0.3587570248    0.0082067854    0.0095394764
  -0.0269314752   -0.0055529546    0.0170756064
   0.0084348248    0.0000718130    0.0002161394
  -0.0078740752    0.0162939054   -0.0099886436
  -0.0068398352   -0.0173475946    0.0091369064
  -0.0019684852   -0.0006822046    0.0027403964
  -0.0018662952    0.0006617054   -0.0025213336
  -0.0002282462    0.0004226044    0.0000145549
   0.0003419798    0.0044000254    0.0012288964
  -0.0008200142   -0.0000551823    0.0001898954
   0.0007677228   -0.0048632346   -0.0006415316
  -0.0268916752   -0.0145805946    0.0101752064
   0.3587570248    0.0117295054    0.0045576064
  -0.0269314752    0.0142481054   -0.0109272936
   0.0084348248    0.0002277124   -0.0000043365
   0.5488130248   -0.1031199946   -0.0729168936
   0.7016510248    0.2104720054    0.1488260064
  -0.0007776272   -0.0103613946   -0.0073266336
  -0.0012516852    0.0073438654    0.0051928964
  -0.0014448252    0.0027380454    0.0003365984
  -0.0052049652   -0.0055962446   -0.0043265736
   0.0032762348   -0.0004156876   -0.0002171056
  -0.0061350852    0.0074277554    0.0042077564
   0.0030625548    0.0027817554   -0.0001990826
   0.0097185548    0.0023681454    0.0018755164
   0.0102364248   -0.0026312346   -0.0024233036
   0.0032600248   -0.0034761846   -0.0000046350
  -0.0078740752   -0.0039860746    0.0186916064
  -0.0068398352    0.0028318354   -0.0194010936
  -0.0019684852    0.0023562654   -0.0015566536
  -0.0018662952   -0.0021565746    0.0014643064
  -0.0014448252    0.0012300254    0.0024692564
  -0.0052049652   -0.0059445546   -0.0038339936
   0.0032762348   -0.0003432546   -0.0003195416
  -0.0061350852    0.0064430254    0.0056003764
   0.0017199448    0.0000396340    0.0000280284
   0.0015443848    0.0008685994    0.0006141954
   0.0019883048   -0.0008588466   -0.0006072936
   0.0017016748   -0.0003235626   -0.0002287896
  -0.0020716652   -0.0023168846    0.0016426164
   0.0050743348   -0.0006101216    0.0003139954
  -0.0024125552    0.0019089654   -0.0015587336
   0.0046423348   -0.0000932928   -0.0003500796
  -0.0002282462    0.0001545884    0.0003935874
   0.0003419798    0.0026252854    0.0037387564
  -0.0008200142    0.0001606384   -0.0001153206
   0.0007677228   -0.0022259246   -0.0043712536
   0.0030625548    0.0007395504    0.0026890264
   0.0097185548    0.0025576354    0.0016075364
   0.0102364248   -0.0031617946   -0.0016729836
   0.0032600248   -0.0011631046   -0.0032758236
  -0.0020716652    0.0007763724   -0.0027319136
   0.0050743348    0.0000926613   -0.0006798896
  -0.0024125552   -0.0008332686    0.0023193664
   0.0046423348   -0.0003611586    0.0000287397
  -0.0007235842   -0.0016672546   -0.0011789236
  -0.0014030152    0.0013850354    0.0009793684
   0.0031296448    0.0007720394    0.0005459174
   0.0034544148   -0.0007861946   -0.0005559206
