 128  128
1 1
    44.910799504264531    -0.000000000000753    -0.000000000000913
    -0.000000000000753    44.910799504271040    -0.000000000005150
    -0.000000000000913    -0.000000000005150    44.910799504259479
1 2
    -3.026664081837187    -0.922091967364813    -0.652017482990832
     0.922091967359079     0.910283149748088     0.592666222326386
     0.652017482972438     0.592666222312443     0.491204844921412
1 3
     0.118960905556136    -0.000000000003065    -0.000000000003065
    -0.000000000002216     0.054223978020457    -0.017835285335412
    -0.000000000000909    -0.017835285335574     0.066835429218646
1 4
    -3.026664081897493     0.922091967384655     0.652017483002854
    -0.922091967380680     0.910283149751106     0.592666222324334
    -0.652017482989725     0.592666222319982     0.491204844925947
1 5
    -0.073953658145139    -0.782656190565244     0.187255263011347
    -2.626840125383034    -2.042427274004022    -0.860996815163195
     0.839272746066684     0.268330592879608     0.491204844953843
1 6
    -0.041565974443845     0.017096257089931     0.006038617982384
     0.017096257091659    -0.061307031716205     0.003486397718016
    -0.036955653086089    -0.021336356257000     0.026537904458248
1 7
    -0.041565974450200    -0.017096257093219    -0.006038617984648
    -0.017096257093708    -0.061307031709698     0.003486397715950
     0.036955653086533    -0.021336356261005     0.026537904456159
1 8
    -0.073953658144649     0.782656190565472    -0.187255263012651
     2.626840125383515    -2.042427274004652    -0.860996815162629
    -0.839272746064890     0.268330592878663     0.491204844953408
1 9
     0.070408209903783     0.028031911905415    -0.015445810184537
     0.028031911906007     0.102776673674236     0.008917642665042
    -0.015445810182874     0.008917642663283     0.066835429218143
1 10
    -0.071177560359256    -0.000000000002050    -0.000000000001380
    -0.000000000001480    -0.031695445803198    -0.006972795443321
    -0.000000000000924     0.042672712506273     0.026537904458095
1 11
     0.070408209904101    -0.028031911907629     0.015445810179138
    -0.028031911908005     0.102776673675408     0.008917642664845
     0.015445810180795     0.008917642662805     0.066835429216837
1 12
    -0.071177560356336    -0.000000000000973     0.000000000000040
    -0.000000000001101    -0.031695445809025     0.042672712511664
     0.000000000001207    -0.006972795441096     0.026537904460691
1 13
    -0.073953658161714    -2.626840125293379     0.839272746018930
    -0.782656190603647    -2.042427273979121     0.268330592844689
     0.187255263019796    -0.860996815101929     0.491204844935615
1 14
    -0.073953658159422     2.626840125288545    -0.839272746021928
     0.782656190602020    -2.042427273975999     0.268330592842212
    -0.187255263018746    -0.860996815108777     0.491204844940549
1 15
    -0.041565974443699    -0.017096257091338     0.036955653085104
    -0.017096257092103    -0.061307031716070    -0.021336356255571
    -0.006038617981504     0.003486397719150     0.026537904456517
1 16
    -0.041565974443145     0.017096257095730    -0.036955653083209
     0.017096257097445    -0.061307031719527    -0.021336356254067
     0.006038617987688     0.003486397721113     0.026537904458392
1 17
    -0.073953658180866    -0.084339441842515    -0.800313753949254
    -0.084339441826043     0.023433140713395    -0.462061361290578
    -2.756366202969713    -1.591388769286744    -1.574655569736380
1 18
    -0.041565974442576     0.011392016001637     0.014105633105817
    -0.029143371497728     0.011167655229692    -0.046960027560232
     0.028437056796429    -0.022137273586646    -0.045936782489576
1 19
    -0.041565974442032    -0.011392015996656    -0.014105633103560
     0.029143371503333     0.011167655232712    -0.046960027560826
    -0.028437056791500    -0.022137273585906    -0.045936782493098
1 20
    -0.073953658174526     0.084339441831711     0.800313753946242
     0.084339441822350     0.023433140713186    -0.462061361283651
     2.756366202920272    -1.591388769258441    -1.574655569699035
1 21
    -0.009702314600627    -0.047539864094342    -0.033615760278912
    -0.007004476592867    -0.020696004609636     0.035695850380377
    -0.004952912898004     0.035695850378298    -0.045936782494367
1 22
    -0.040106795737230    -0.000000000001534     0.000000000000409
    -0.000000000001049    -0.040106795728714    -0.000000000003128
     0.000000000001898    -0.000000000003985    -0.040106795737182
1 23
    -0.009702314593974     0.047539864087730     0.033615760271920
     0.007004476587536    -0.020696004617627     0.035695850385181
     0.004952912895296     0.035695850382230    -0.045936782494172
1 24
    -0.024452871135479     0.000000000002632     0.000000000000192
     0.000000000001962    -0.133138520331037    -0.076852359564078
     0.000000000000766    -0.076852359563220    -0.078795695738825
1 25
     0.005670810213832     0.001871201155336    -0.047721393383481
    -0.038664186345047    -0.036069129435030     0.011264177172330
    -0.033389969691765    -0.013558576805462    -0.045936782482816
1 26
     0.005670810219845    -0.001871201161799     0.047721393376924
     0.038664186338868    -0.036069129434093     0.011264177175211
     0.033389969688047    -0.013558576802269    -0.045936782489168
1 27
     0.010577267842485    -0.067075985922148    -0.001570589056437
    -0.067075985925096     0.088029944901700    -0.000906780014878
     0.034971030797117     0.020190534039856    -0.014513397450038
1 28
     0.010577267843320     0.067075985921153     0.001570589053210
     0.067075985922576     0.088029944900101    -0.000906780014302
    -0.034971030796950     0.020190534041034    -0.014513397447654
1 29
     0.072126540153446     0.000000000006836    -0.000000000000065
    -0.000000000003146    -0.122647057615534     0.924122722570337
    -0.000000000001465     3.182777538527772    -1.574655569793830
1 30
    -0.105967108031237     0.047062266611612    -0.066556095724384
     0.047062266613666    -0.051624283434748     0.038426179782335
    -0.066556095725370     0.038426179781549    -0.078795695738126
1 31
     0.126756283427645     0.000000000003319     0.000000000000682
     0.000000000001313    -0.028149070683120     0.001813560027003
     0.000000000000974    -0.040381068089612    -0.014513397447767
1 32
    -0.105967108036680    -0.047062266616447     0.066556095721341
    -0.047062266618071    -0.051624283436268     0.038426179780085
     0.066556095721983     0.038426179778490    -0.078795695731952
1 33
     0.070408209904798    -0.005218478858740     0.031577343390981
    -0.005218478858693     0.076433990256361     0.018231187706168
     0.031577343392627     0.018231187705816     0.093178112634993
1 34
    -0.071177560350788    -0.000000000002213    -0.000000000004449
    -0.000000000003605     0.031286933744663     0.020405078672790
    -0.000000000002403    -0.029240429278646    -0.036444475095442
1 35
     0.070408209899832     0.005218478859717    -0.031577343391420
     0.005218478860046     0.076433990254964     0.018231187704128
    -0.031577343390303     0.018231187702238     0.093178112639223
1 36
    -0.071177560357181    -0.000000000001808    -0.000000000001189
    -0.000000000001173     0.031286933745046    -0.029240429280494
     0.000000000000907     0.020405078668608    -0.036444475091602
1 37
     0.005670810216788    -0.044368427436265     0.017671316496457
    -0.044368427438307    -0.045561436832620    -0.010202539337891
    -0.025322954571126     0.014620214635812    -0.036444475087682
1 38
     0.005670810220819     0.044368427433979    -0.017671316499869
     0.044368427435323    -0.045561436827626    -0.010202539336349
     0.025322954571113     0.014620214638004    -0.036444475096143
1 39
     0.010577267840444    -0.023839427535764    -0.062716316316108
     0.010612342054465     0.002940606481567     0.050274158144387
    -0.074896856264585     0.029176844084848     0.070575940973213
1 40
     0.010577267840350     0.023839427533636     0.062716316313033
    -0.010612342056983     0.002940606480590     0.050274158145431
     0.074896856262501     0.029176844084409     0.070575940975240
1 41
     0.079446880422472     0.000000000000602     0.000000000000005
     0.000000000001159     0.067395319734162    -0.036462375419086
     0.000000000000443    -0.036462375419912     0.093178112638997
1 42
    -0.000877724199865     0.017225884790231     0.012180539946799
    -0.017225884798984     0.014395598525872    -0.079451002234747
    -0.012180539951066    -0.079451002234698     0.070575940972498
1 43
    -0.089425495730629     0.000000000003129    -0.000000000000060
     0.000000000003524    -0.089425495733599     0.000000000001036
     0.000000000001777     0.000000000000610    -0.089425495740535
1 44
    -0.000877724203640    -0.017225884795224    -0.012180539951294
     0.017225884795456     0.014395598522858    -0.079451002236740
     0.012180539949083    -0.079451002234083     0.070575940976482
1 45
     0.005670810219750    -0.044368427432728    -0.025322954568962
    -0.044368427433842    -0.045561436828679     0.014620214638460
     0.017671316501976    -0.010202539337566    -0.036444475097191
1 46
     0.010577267843059    -0.010612342054015     0.074896856264221
     0.023839427535013     0.002940606483447     0.029176844086065
     0.062716316316234     0.050274158144515     0.070575940968812
1 47
     0.010577267842394     0.010612342049830    -0.074896856267902
    -0.023839427538563     0.002940606484053     0.029176844086090
    -0.062716316316543     0.050274158143457     0.070575940965642
1 48
     0.005670810213628     0.044368427435804     0.025322954570747
     0.044368427436681    -0.045561436827986     0.014620214636796
    -0.017671316497041    -0.010202539340150    -0.036444475089467
1 49
    -0.073953658172772    -0.084339441851770    -2.756366202967495
    -0.084339441825048     0.023433140703502    -1.591388769301126
    -0.800313753945609    -0.462061361292620    -1.574655569735955
1 50
    -0.073953658173212     0.084339441845616     2.756366202980348
     0.084339441823902     0.023433140701884    -1.591388769303829
     0.800313753926389    -0.462061361284390    -1.574655569680118
1 51
    -0.041565974444412     0.029143371496528    -0.028437056797168
    -0.011392016002399     0.011167655232971    -0.022137273586470
    -0.014105633105643    -0.046960027563232    -0.045936782491149
1 52
    -0.041565974451724    -0.029143371499704     0.028437056794900
     0.011392015999809     0.011167655229697    -0.022137273585182
     0.014105633104688    -0.046960027561849    -0.045936782482217
1 53
     0.072126540149406     0.000000000000877    -0.000000000000275
     0.000000000000544    -0.122647057568476     3.182777538526696
     0.000000000001877     0.924122722533346    -1.574655569785223
1 54
    -0.105967108035591    -0.047062266614265     0.066556095722571
    -0.047062266614224    -0.051624283428824     0.038426179776535
     0.066556095723586     0.038426179775736    -0.078795695740421
1 55
     0.126756283422778     0.000000000000208     0.000000000000584
     0.000000000000135    -0.028149070679095    -0.040381068091834
     0.000000000001453     0.001813560022371    -0.014513397445691
1 56
    -0.105967108036284     0.047062266616222    -0.066556095723115
     0.047062266616692    -0.051624283428871     0.038426179776009
    -0.066556095722434     0.038426179776178    -0.078795695738760
1 57
     0.005670810214340    -0.038664186342250    -0.033389969691435
     0.001871201158312    -0.036069129429184    -0.013558576806352
    -0.047721393379704     0.011264177167714    -0.045936782490620
1 58
     0.010577267842700     0.067075985920248    -0.034971030798237
     0.067075985922810     0.088029944899092     0.020190534043922
     0.001570589053311    -0.000906780017155    -0.014513397446563
1 59
     0.010577267837786    -0.067075985922712     0.034971030796026
    -0.067075985921328     0.088029944904977     0.020190534038595
    -0.001570589054002    -0.000906780019842    -0.014513397448544
1 60
     0.005670810214947     0.038664186342885     0.033389969688925
    -0.001871201157415    -0.036069129434758    -0.013558576803685
     0.047721393380444     0.011264177170408    -0.045936782482951
1 61
    -0.009702314592815    -0.007004476589875    -0.004952912896335
    -0.047539864091360    -0.020696004616720     0.035695850384573
    -0.033615760273485     0.035695850382446    -0.045936782494164
1 62
    -0.024452871135718    -0.000000000006026    -0.000000000005243
    -0.000000000004708    -0.133138520331287    -0.076852359565030
    -0.000000000003561    -0.076852359564875    -0.078795695736810
1 63
    -0.009702314600950     0.007004476591351     0.004952912894757
     0.047539864091950    -0.020696004618144     0.035695850382050
     0.033615760273661     0.035695850379239    -0.045936782483781
1 64
    -0.040106795738665     0.000000000000642    -0.000000000000091
     0.000000000001368    -0.040106795734654    -0.000000000001723
     0.000000000001464    -0.000000000003716    -0.040106795730937
1 65
    -0.017430848119691    -0.012755373382189    -0.009019411015685
    -0.012755373381678    -0.002702211598482    -0.005207359381649
    -0.009019411014611    -0.005207359382319     0.000979947515846
1 66
    -0.035495952475445     0.227117380254688     0.160596239699241
     0.227117380258491     0.468646474279710     0.309153920006997
     0.160596239696275     0.309153919993892     0.250041640990785
1 67
    -0.035495952465548    -0.227117380254430    -0.160596239701285
    -0.227117380253338     0.468646474280685     0.309153920008784
    -0.160596239695357     0.309153919999396     0.250041640985605
1 68
    -0.017430848114853     0.012755373377355     0.009019411011620
     0.012755373378081    -0.002702211603779    -0.005207359377710
     0.009019411012328    -0.005207359379551     0.000979947515631
1 69
     0.539300288522043    -0.104741384212956     0.348033268254454
    -0.104741384214242    -0.106149766727956    -0.015496536668018
     0.348033268263046    -0.015496536666280     0.250041640996933
1 70
    -7.149622568335318     0.000000000047582     0.000000000110318
     0.000000000047335    -7.149622568492619     0.000000000121011
     0.000000000053578     0.000000000022065   -15.220426350376112
1 71
     0.539300288520966     0.104741384213436    -0.348033268255362
     0.104741384216825    -0.106149766727548    -0.015496536668101
    -0.348033268261472    -0.015496536667367     0.250041640996204
1 72
    -0.170137706860936    -0.000000000000711    -0.000000000003738
    -0.000000000002767     0.042415103189574    -0.021958485101723
    -0.000000000002716    -0.021958485102629    -0.020315468530215
1 73
     0.145921446641876    -0.331858764463850     0.187437028553251
    -0.331858764474301     0.287229075155795    -0.293657383344793
     0.187437028561153    -0.293657383347000     0.250041641002903
1 74
     0.145921446645532     0.331858764459192    -0.187437028560619
     0.331858764469675     0.287229075158099    -0.293657383348182
    -0.187437028563269    -0.293657383341592     0.250041641001531
1 75
     0.038618198836425     0.012938310348019    -0.052820136264106
     0.012938310347000     0.023678324918371    -0.030495719894983
    -0.052820136262377    -0.030495719895802     0.011985529042145
1 76
     0.038618198842116    -0.012938310350568     0.052820136257972
    -0.012938310351257     0.023678324912220    -0.030495719888839
     0.052820136261242    -0.030495719890565     0.011985529041853
1 77
     0.004662106651616    -0.000000000003579    -0.000000000002947
    -0.000000000002103    -0.024795166369986     0.010414718754781
    -0.000000000001139     0.010414718753809     0.000979947513042
1 78
    -0.010723099323929    -0.092038066573568    -0.019016605924623
    -0.092038066576077    -0.116999504350161     0.010979242551816
    -0.019016605922680     0.010979242550904    -0.020315468529431
1 79
     0.016208387951638     0.000000000000048     0.000000000000515
     0.000000000001325     0.046088135802829     0.060991439779145
     0.000000000001727     0.060991439777432     0.011985529039815
1 80
    -0.010723099323473     0.092038066577528     0.019016605926423
     0.092038066579308    -0.116999504350172     0.010979242551148
     0.019016605927931     0.010979242550052    -0.020315468532425
1 81
     0.539300288522062     0.293215117344446    -0.214762213488634
     0.293215117345118     0.200724634665522    -0.123993021774313
    -0.214762213488087    -0.123993021775138    -0.056832760393115
1 82
    -7.149622568419717     0.000000000000274    -0.000000000001836
     0.000000000000292   -14.323670374551792     2.536408926199412
     0.000000000000444     2.536408926198931    -8.046378544233978
1 83
     0.539300288520858    -0.293215117345823     0.214762213485540
    -0.293215117345744     0.200724634667062    -0.123993021775112
     0.214762213487715    -0.123993021776346    -0.056832760390348
1 84
    -0.170137706869040    -0.000000000001438    -0.000000000002647
    -0.000000000001075    -0.027147177189826     0.002635494981473
    -0.000000000001194     0.002635494979910     0.049246811855423
1 85
   -12.530158423092058     3.106453824071147     2.196594564423668
     3.106453824082493    -8.943134520105868    -1.268204463015176
     2.196594564356665    -1.268204462973234    -8.046378544005311
1 86
   -12.530158423095351    -3.106453824071134    -2.196594564425402
    -3.106453824082005    -8.943134520105072    -1.268204463015748
    -2.196594564355156    -1.268204462973362    -8.046378544003426
1 87
     0.023356867660483     0.179767129519015     0.127114556315591
     0.179767129521065    -0.066350427174661     0.024610272419304
     0.127114556314808     0.024610272416948    -0.083752517695993
1 88
     0.023356867661622    -0.179767129517157    -0.127114556315534
    -0.179767129519773    -0.066350427179282     0.024610272419001
    -0.127114556310795     0.024610272415781    -0.083752517686375
1 89
     0.031436807726902    -0.000000000001285    -0.000000000002455
     0.000000000000016     0.708588115471329     0.247986043530200
    -0.000000000000863     0.247986043512746    -0.056832760392162
1 90
     0.111759297456582     0.128727962875436     0.084870399265273
     0.128727962876965    -0.154752856975914     0.097779298749994
     0.084870399263694     0.097779298745918    -0.083752517688292
1 91
    -0.065455306776500    -0.000000000001671    -0.000000000004086
    -0.000000000002863    -0.065455306781060     0.000000000001491
    -0.000000000002669     0.000000000001476    -0.020366773645773
1 92
     0.111759297456224    -0.128727962876604    -0.084870399265629
    -0.128727962876041    -0.154752856973973     0.097779298750470
    -0.084870399262306     0.097779298746110    -0.083752517688225
1 93
    -0.062894809616470    -0.061916715598681     0.002282405607923
    -0.061916715597657    -0.134390074441056    -0.001317747497231
     0.002282405609230    -0.001317747498562     0.049246811854427
1 94
    -0.199606504388370    -0.051039166639518    -0.042244157046005
    -0.051039166639150     0.156612944883611    -0.122389571171824
    -0.042244157044495    -0.122389571175475    -0.083752517692373
1 95
    -0.199606504389955     0.051039166643533     0.042244157050458
     0.051039166646204     0.156612944882849    -0.122389571173253
     0.042244157052232    -0.122389571176287    -0.083752517690987
1 96
    -0.062894809616685     0.061916715597036    -0.002282405611200
     0.061916715597570    -0.134390074450287    -0.001317747495395
    -0.002282405609760    -0.001317747495612     0.049246811860189
1 97
     0.145921446644344     0.066097737094635    -0.375358453183205
     0.066097737099434     0.069598354037511    -0.216713303992781
    -0.375358453186982    -0.216713303989635     0.467672362119426
1 98
     0.145921446641493    -0.066097737092510     0.375358453181666
    -0.066097737097296     0.069598354036933    -0.216713303993770
     0.375358453187957    -0.216713303990165     0.467672362123217
1 99
     0.038618198834950    -0.045486531931050     0.029805068065236
    -0.045486531931100    -0.005883031700856    -0.020044202030712
     0.029805068066290    -0.020044202032128     0.041546885663814
1 100
     0.038618198835012     0.045486531928416    -0.029805068068752
     0.045486531929377    -0.005883031707742    -0.020044202028610
    -0.029805068067235    -0.020044202029411     0.041546885668297
1 101
     0.031436807726798     0.000000000001190    -0.000000000001941
     0.000000000000073     0.184082992954871     0.433426607982743
    -0.000000000000225     0.433426607969401     0.467672362098859
1 102
     0.111759297458255     0.122925900750579     0.093075754211862
     0.122925900751447    -0.030183306317802     0.053737311750538
     0.093075754210920     0.053737311745246    -0.208322068341357
1 103
    -0.065455306784978    -0.000000000002187    -0.000000000002420
    -0.000000000000934    -0.025376610652063    -0.014169958907972
    -0.000000000001170    -0.014169958910140    -0.060445469767481
1 104
     0.111759297457713    -0.122925900752749    -0.093075754214390
    -0.122925900753405    -0.030183306315108     0.053737311749270
    -0.093075754210418     0.053737311745380    -0.208322068344929
1 105
    -0.034150216251209    -0.003473667888268    -0.002456254120033
    -0.003473667887520     0.066885383385779     0.035834047117459
    -0.002456254117045     0.035834047116296     0.041546885660792
1 106
    -0.035396284683603    -0.017354584492990    -0.012271544380993
    -0.017354584493741    -0.055435632748953     0.007084979452474
    -0.012271544379247     0.007084979450900    -0.060445469771192
1 107
    -0.035396284692964     0.017354584497091     0.012271544380753
     0.017354584499049    -0.055435632742849     0.007084979447502
     0.012271544382475     0.007084979446014    -0.060445469768542
1 108
    -0.034150216251399     0.003473667890256     0.002456254120015
     0.003473667892541     0.066885383387533     0.035834047117659
     0.002456254122012     0.035834047116185     0.041546885660156
1 109
     0.044634768110971     0.042012864041800    -0.032261322185578
     0.042012864042467    -0.011899600975894    -0.015789845095402
    -0.032261322185512    -0.015789845095219     0.041546885659553
1 110
    -0.101154608202921     0.000000000003336     0.000000000003579
     0.000000000003999     0.182730599353085    -0.107474623504772
     0.000000000004215    -0.107474623508964    -0.208322068348420
1 111
     0.044634768108545    -0.042012864042591     0.032261322185694
    -0.042012864042539    -0.011899600978465    -0.015789845096405
     0.032261322186783    -0.015789845097567     0.041546885663645
1 112
    -0.092842522234580    -0.000000000001388    -0.000000000002325
    -0.000000000001780    -0.092842522231495    -0.000000000002711
    -0.000000000000367    -0.000000000002519    -0.052345892738348
1 113
     0.004662106651390    -0.000000000003277    -0.000000000003865
    -0.000000000003647     0.004662106651730    -0.000000000000236
    -0.000000000001263    -0.000000000002986    -0.028477325507137
1 114
    -0.010723099329943    -0.048608383536412    -0.080435452698188
    -0.048608383535968    -0.024157253076025    -0.021845450182068
    -0.080435452695108    -0.021845450183733    -0.113157719796072
1 115
     0.016208387949354     0.000000000002516     0.000000000000679
     0.000000000003354     0.054110228165662     0.058155201824361
     0.000000000002444     0.058155201821882     0.003963436678715
1 116
    -0.010723099323424     0.048608383536407     0.080435452695394
     0.048608383536335    -0.024157253073012    -0.021845450179259
     0.080435452696043    -0.021845450180756    -0.113157719808645
1 117
    -0.062894809608972    -0.018487032551482    -0.059136441157851
    -0.018487032550011     0.028014457216221    -0.058736420312221
    -0.059136441156567    -0.058736420313685    -0.113157719808006
1 118
    -0.199606504398577    -0.056841228766730    -0.034038802100797
    -0.056841228766372    -0.133971906926575    -0.019652311557891
    -0.034038802097619    -0.019652311559405     0.206832334118768
1 119
    -0.199606504386480     0.056841228761930     0.034038802099189
     0.056841228763070    -0.133971906932891    -0.019652311558063
     0.034038802096799    -0.019652311554582     0.206832334117994
1 120
    -0.062894809616990     0.018487032554363     0.059136441158154
     0.018487032554477     0.028014457215316    -0.058736420313362
     0.059136441158290    -0.058736420312991    -0.113157719798562
1 121
     0.044634768108092    -0.016411978236399     0.050363882143056
    -0.016411978237176     0.025683848011706    -0.029077600916450
     0.050363882144598    -0.029077600917312     0.003963436677889
1 122
    -0.101154608201944    -0.000000000004315    -0.000000000001502
    -0.000000000002225    -0.232423803124734     0.039304623112708
    -0.000000000001862     0.039304623115438     0.206832334118542
1 123
     0.044634768107148     0.016411978236873    -0.050363882143659
     0.016411978236804     0.025683848005445    -0.029077600916036
    -0.050363882141519    -0.029077600915320     0.003963436686783
1 124
    -0.092842522232088    -0.000000000001138    -0.000000000000330
    -0.000000000001508    -0.056845518233099    -0.012726862815786
     0.000000000000467    -0.012726862816784    -0.088342896736299
1 125
     0.021297380342378     0.030121350975598     0.021299011531999
     0.030121350976846    -0.056177732736258     0.080581870489398
     0.021299011533104     0.080581870485793    -0.113157719810676
1 126
     0.021297380333638    -0.030121350979078    -0.021299011537608
    -0.030121350978844    -0.056177732731915     0.080581870484237
    -0.021299011536102     0.080581870482772    -0.113157719806293
1 127
    -0.065844769236699    -0.015587159954668    -0.011021786505224
    -0.015587159955792    -0.083843271231619     0.006363431405310
    -0.011021786504391     0.006363431404698    -0.088342896734994
1 128
    -0.065844769240785     0.015587159956713     0.011021786503947
     0.015587159956790    -0.083843271235574     0.006363431403697
     0.011021786504504     0.006363431402290    -0.088342896728397
2 1
    -3.026664081837187     0.922091967359079     0.652017482972438
    -0.922091967364813     0.910283149748088     0.592666222312443
    -0.652017482990832     0.592666222326386     0.491204844921412
2 2
    44.910799503199335     0.000000000730242     0.000000000516515
     0.000000000730242    44.910799505472589    -0.000000000805879
     0.000000000516515    -0.000000000805879    44.910799504123077
2 3
    -3.026664081809470    -0.922091967399305    -0.652017483000574
     0.922091967357013     0.910283149757962     0.592666222324931
     0.652017482970960     0.592666222325667     0.491204844921142
2 4
     0.118960905555274    -0.000000000002617    -0.000000000002442
    -0.000000000003650     0.054223978021715    -0.017835285334937
    -0.000000000000467    -0.017835285334965     0.066835429217897
2 5
    -0.073953658175816     0.782656190613754    -0.187255263007683
     2.626840125332863    -2.042427274019787    -0.860996815122757
    -0.839272746049605     0.268330592869690     0.491204844948701
2 6
    -0.073953658183636    -0.782656190621108     0.187255263001983
    -2.626840125383139    -2.042427274064863    -0.860996815153800
     0.839272746044241     0.268330592872800     0.491204844958568
2 7
    -0.041565974446585     0.017096257091975     0.006038617983021
     0.017096257090655    -0.061307031714549     0.003486397718767
    -0.036955653084006    -0.021336356258446     0.026537904457501
2 8
    -0.041565974439904    -0.017096257102863    -0.006038617989014
    -0.017096257101689    -0.061307031720844     0.003486397722320
     0.036955653080153    -0.021336356253529     0.026537904456545
2 9
    -0.071177560347523    -0.000000000002372    -0.000000000004859
    -0.000000000001760    -0.031695445814028     0.042672712514561
    -0.000000000002371    -0.006972795436112     0.026537904457890
2 10
     0.070408209900083     0.028031911899905    -0.015445810185863
     0.028031911900064     0.102776673675995     0.008917642662208
    -0.015445810186028     0.008917642662464     0.066835429220476
2 11
    -0.071177560347208    -0.000000000009004    -0.000000000005926
    -0.000000000008049    -0.031695445813030    -0.006972795436844
    -0.000000000004933     0.042672712514710     0.026537904456777
2 12
     0.070408209902591    -0.028031911909458     0.015445810181033
    -0.028031911908570     0.102776673671678     0.008917642665612
     0.015445810180836     0.008917642664887     0.066835429222838
2 13
    -0.041565974440988     0.017096257092134    -0.036955653084825
     0.017096257091375    -0.061307031722442    -0.021336356251904
     0.006038617984866     0.003486397722544     0.026537904457561
2 14
    -0.073953658185023    -2.626840125386753     0.839272746043443
    -0.782656190620654    -2.042427274062931     0.268330592872530
     0.187255263005398    -0.860996815138677     0.491204844956035
2 15
    -0.073953658148644     2.626840125373683    -0.839272746051046
     0.782656190579808    -2.042427274039018     0.268330592879629
    -0.187255263017753    -0.860996815153527     0.491204844955529
2 16
    -0.041565974439378    -0.017096257097447     0.036955653081814
    -0.017096257096272    -0.061307031724283    -0.021336356251843
    -0.006038617984557     0.003486397724595     0.026537904459188
2 17
    -0.073953658138329     0.084339441806803     0.800313753914131
     0.084339441813370     0.023433140715661    -0.462061361274242
     2.756366202908159    -1.591388769267128    -1.574655569692901
2 18
    -0.073953658149245    -0.084339441818058    -0.800313753920367