phonopy:
  version: "2.19.1"
  frequency_unit_conversion_factor: 15.633302
  symmetry_tolerance: 1.00000e-05

space_group:
  type: "Fd-3m"
  number: 227
  Hall_symbol: "F 4d 2 3 -1d"

supercell_matrix:
- [   4,   0,   0 ]
- [   0,   4,   0 ]
- [   0,   0,   4 ]

primitive_cell:
  lattice:
  - [     2.500175429000000,     0.000000000000000,     0.000000000000000 ] # a
  - [     1.250087714500000,     2.165215435400000,     0.000000000000000 ] # b
  - [     1.250087714500000,     0.721738478500000,     2.041384689500000 ] # c
  points:
  - symbol: C  # 1
    coordinates: [  0.999997454617902,  0.999997454587760,  0.999997454570897 ]
    mass: 12.010700
  - symbol: C  # 2
    coordinates: [  0.249997596000766,  0.249997596026479,  0.249997596006757 ]
    mass: 12.010700
  reciprocal_lattice: # without 2pi
  - [     0.399971933329483,    -0.230923903379448,    -0.163287858011358 ] # a*
  - [     0.000000000000000,     0.461847806758897,    -0.163287858022670 ] # b*
  - [     0.000000000000000,     0.000000000000000,     0.489863574045386 ] # c*

unit_cell:
  lattice:
  - [     2.500175429000000,     0.000000000000000,     0.000000000000000 ] # a
  - [     1.250087714500000,     2.165215435400000,     0.000000000000000 ] # b
  - [     1.250087714500000,     0.721738478500000,     2.041384689500000 ] # c
  points:
  - symbol: C  # 1
    coordinates: [  0.999997454617902,  0.999997454587760,  0.999997454570897 ]
    mass: 12.010700
    reduced_to: 1
  - symbol: C  # 2
    coordinates: [  0.249997596000766,  0.249997596026479,  0.249997596006757 ]
    mass: 12.010700
    reduced_to: 2

supercell:
  lattice:
  - [    10.000701716000000,     0.000000000000000,     0.000000000000000 ] # a
  - [     5.000350858000000,     8.660861741600000,     0.000000000000000 ] # b
  - [     5.000350858000000,     2.886953914000000,     8.165538758000000 ] # c
  points:
  - symbol: C  # 1
    coordinates: [  0.249999363654475,  0.249999363646940,  0.249999363642724 ]
    mass: 12.010700
    reduced_to: 1
  - symbol: C  # 2
    coordinates: [  0.499999363654475,  0.249999363646940,  0.249999363642724 ]
    mass: 12.010700
    reduced_to: 1
  - symbol: C  # 3
    coordinates: [  0.749999363654475,  0.249999363646940,  0.249999363642724 ]
    mass: 12.010700
    reduced_to: 1
  - symbol: C  # 4
    coordinates: [  0.999999363654475,  0.249999363646940,  0.249999363642724 ]
    mass: 12.010700
    reduced_to: 1
  - symbol: C  # 5
    coordinates: [  0.249999363654475,  0.499999363646940,  0.249999363642724 ]
    mass: 12.010700
    reduced_to: 1
  - symbol: C  # 6
    coordinates: [  0.499999363654475,  0.499999363646940,  0.249999363642724 ]
    mass: 12.010700
    reduced_to: 1
  - symbol: C  # 7
    coordinates: [  0.749999363654475,  0.499999363646940,  0.249999363642724 ]
    mass: 12.010700
    reduced_to: 1
  - symbol: C  # 8
    coordinates: [  0.999999363654475,  0.499999363646940,  0.249999363642724 ]
    mass: 12.010700
    reduced_to: 1
  - symbol: C  # 9
    coordinates: [  0.249999363654475,  0.749999363646940,  0.249999363642724 ]
    mass: 12.010700
    reduced_to: 1
  - symbol: C  # 10
    coordinates: [  0.499999363654475,  0.749999363646940,  0.249999363642724 ]
    mass: 12.010700
    reduced_to: 1
  - symbol: C  # 11
    coordinates: [  0.749999363654475,  0.749999363646940,  0.249999363642724 ]
    mass: 12.010700
    reduced_to: 1
  - symbol: C  # 12
    coordinates: [  0.999999363654475,  0.749999363646940,  0.249999363642724 ]
    mass: 12.010700
    reduced_to: 1
  - symbol: C  # 13
    coordinates: [  0.249999363654475,  0.999999363646940,  0.249999363642724 ]
    mass: 12.010700
    reduced_to: 1
  - symbol: C  # 14
    coordinates: [  0.499999363654475,  0.999999363646940,  0.249999363642724 ]
    mass: 12.010700
    reduced_to: 1
  - symbol: C  # 15
    coordinates: [  0.749999363654475,  0.999999363646940,  0.249999363642724 ]
    mass: 12.010700
    reduced_to: 1
  - symbol: C  # 16
    coordinates: [  0.999999363654475,  0.999999363646940,  0.249999363642724 ]
    mass: 12.010700
    reduced_to: 1
  - symbol: C  # 17
    coordinates: [  0.249999363654475,  0.249999363646940,  0.499999363642724 ]
    mass: 12.010700
    reduced_to: 1
  - symbol: C  # 18
    coordinates: [  0.499999363654475,  0.249999363646940,  0.499999363642724 ]
    mass: 12.010700
    reduced_to: 1
  - symbol: C  # 19
    coordinates: [  0.749999363654475,  0.249999363646940,  0.499999363642724 ]
    mass: 12.010700
    reduced_to: 1
  - symbol: C  # 20
    coordinates: [  0.999999363654475,  0.249999363646940,  0.499999363642724 ]
    mass: 12.010700
    reduced_to: 1
  - symbol: C  # 21
    coordinates: [  0.249999363654475,  0.499999363646940,  0.499999363642724 ]
    mass: 12.010700
    reduced_to: 1
  - symbol: C  # 22
    coordinates: [  0.499999363654475,  0.499999363646940,  0.499999363642724 ]
    mass: 12.010700
    reduced_to: 1
  - symbol: C  # 23
    coordinates: [  0.749999363654475,  0.499999363646940,  0.499999363642724 ]
    mass: 12.010700
    reduced_to: 1
  - symbol: C  # 24
    coordinates: [  0.999999363654475,  0.499999363646940,  0.499999363642724 ]
    mass: 12.010700
    reduced_to: 1
  - symbol: C  # 25
    coordinates: [  0.249999363654475,  0.749999363646940,  0.499999363642724 ]
    mass: 12.010700
    reduced_to: 1
  - symbol: C  # 26
    coordinates: [  0.499999363654475,  0.749999363646940,  0.499999363642724 ]
    mass: 12.010700
    reduced_to: 1
  - symbol: C  # 27
    coordinates: [  0.749999363654475,  0.749999363646940,  0.499999363642724 ]
    mass: 12.010700
    reduced_to: 1
  - symbol: C  # 28
    coordinates: [  0.999999363654475,  0.749999363646940,  0.499999363642724 ]
    mass: 12.010700
    reduced_to: 1
  - symbol: C  # 29
    coordinates: [  0.249999363654475,  0.999999363646940,  0.499999363642724 ]
    mass: 12.010700
    reduced_to: 1
  - symbol: C  # 30
    coordinates: [  0.499999363654475,  0.999999363646940,  0.499999363642724 ]
    mass: 12.010700
    reduced_to: 1
  - symbol: C  # 31
    coordinates: [  0.749999363654475,  0.999999363646940,  0.499999363642724 ]
    mass: 12.010700
    reduced_to: 1
  - symbol: C  # 32
    coordinates: [  0.999999363654475,  0.999999363646940,  0.499999363642724 ]
    mass: 12.010700
    reduced_to: 1
  - symbol: C  # 33
    coordinates: [  0.249999363654475,  0.249999363646940,  0.749999363642724 ]
    mass: 12.010700
    reduced_to: 1
  - symbol: C  # 34
    coordinates: [  0.499999363654475,  0.249999363646940,  0.749999363642724 ]
    mass: 12.010700
    reduced_to: 1
  - symbol: C  # 35
    coordinates: [  0.749999363654475,  0.249999363646940,  0.749999363642724 ]
    mass: 12.010700
    reduced_to: 1
  - symbol: C  # 36
    coordinates: [  0.999999363654475,  0.249999363646940,  0.749999363642724 ]
    mass: 12.010700
    reduced_to: 1
  - symbol: C  # 37
    coordinates: [  0.249999363654475,  0.499999363646940,  0.749999363642724 ]
    mass: 12.010700
    reduced_to: 1
  - symbol: C  # 38
    coordinates: [  0.499999363654475,  0.499999363646940,  0.749999363642724 ]
    mass: 12.010700
    reduced_to: 1
  - symbol: C  # 39
    coordinates: [  0.749999363654475,  0.499999363646940,  0.749999363642724 ]
    mass: 12.010700
    reduced_to: 1
  - symbol: C  # 40
    coordinates: [  0.999999363654475,  0.499999363646940,  0.749999363642724 ]
    mass: 12.010700
    reduced_to: 1
  - symbol: C  # 41
    coordinates: [  0.249999363654475,  0.749999363646940,  0.749999363642724 ]
    mass: 12.010700
    reduced_to: 1
  - symbol: C  # 42
    coordinates: [  0.499999363654475,  0.749999363646940,  0.749999363642724 ]
    mass: 12.010700
    reduced_to: 1
  - symbol: C  # 43
    coordinates: [  0.749999363654475,  0.749999363646940,  0.749999363642724 ]
    mass: 12.010700
    reduced_to: 1
  - symbol: C  # 44
    coordinates: [  0.999999363654475,  0.749999363646940,  0.749999363642724 ]
    mass: 12.010700
    reduced_to: 1
  - symbol: C  # 45
    coordinates: [  0.249999363654475,  0.999999363646940,  0.749999363642724 ]
    mass: 12.010700
    reduced_to: 1
  - symbol: C  # 46
    coordinates: [  0.499999363654475,  0.999999363646940,  0.749999363642724 ]
    mass: 12.010700
    reduced_to: 1
  - symbol: C  # 47
    coordinates: [  0.749999363654475,  0.999999363646940,  0.749999363642724 ]
    mass: 12.010700
    reduced_to: 1
  - symbol: C  # 48
    coordinates: [  0.999999363654475,  0.999999363646940,  0.749999363642724 ]
    mass: 12.010700
    reduced_to: 1
  - symbol: C  # 49
    coordinates: [  0.249999363654475,  0.249999363646940,  0.999999363642724 ]
    mass: 12.010700
    reduced_to: 1
  - symbol: C  # 50
    coordinates: [  0.499999363654475,  0.249999363646940,  0.999999363642724 ]
    mass: 12.010700
    reduced_to: 1
  - symbol: C  # 51
    coordinates: [  0.749999363654475,  0.249999363646940,  0.999999363642724 ]
    mass: 12.010700
    reduced_to: 1
  - symbol: C  # 52
    coordinates: [  0.999999363654475,  0.249999363646940,  0.999999363642724 ]
    mass: 12.010700
    reduced_to: 1
  - symbol: C  # 53
    coordinates: [  0.249999363654475,  0.499999363646940,  0.999999363642724 ]
    mass: 12.010700
    reduced_to: 1
  - symbol: C  # 54
    coordinates: [  0.499999363654475,  0.499999363646940,  0.999999363642724 ]
    mass: 12.010700
    reduced_to: 1
  - symbol: C  # 55
    coordinates: [  0.749999363654475,  0.499999363646940,  0.999999363642724 ]
    mass: 12.010700
    reduced_to: 1
  - symbol: C  # 56
    coordinates: [  0.999999363654475,  0.499999363646940,  0.999999363642724 ]
    mass: 12.010700
    reduced_to: 1
  - symbol: C  # 57
    coordinates: [  0.249999363654475,  0.749999363646940,  0.999999363642724 ]
    mass: 12.010700
    reduced_to: 1
  - symbol: C  # 58
    coordinates: [  0.499999363654475,  0.749999363646940,  0.999999363642724 ]
    mass: 12.010700
    reduced_to: 1
  - symbol: C  # 59
    coordinates: [  0.749999363654475,  0.749999363646940,  0.999999363642724 ]
    mass: 12.010700
    reduced_to: 1
  - symbol: C  # 60
    coordinates: [  0.999999363654475,  0.749999363646940,  0.999999363642724 ]
    mass: 12.010700
    reduced_to: 1
  - symbol: C  # 61
    coordinates: [  0.249999363654475,  0.999999363646940,  0.999999363642724 ]
    mass: 12.010700
    reduced_to: 1
  - symbol: C  # 62
    coordinates: [  0.499999363654475,  0.999999363646940,  0.999999363642724 ]
    mass: 12.010700
    reduced_to: 1
  - symbol: C  # 63
    coordinates: [  0.749999363654475,  0.999999363646940,  0.999999363642724 ]
    mass: 12.010700
    reduced_to: 1
  - symbol: C  # 64
    coordinates: [  0.999999363654475,  0.999999363646940,  0.999999363642724 ]
    mass: 12.010700
    reduced_to: 1
  - symbol: C  # 65
    coordinates: [  0.062499399000191,  0.062499399006620,  0.062499399001689 ]
    mass: 12.010700
    reduced_to: 65
  - symbol: C  # 66
    coordinates: [  0.312499399000191,  0.062499399006620,  0.062499399001689 ]
    mass: 12.010700
    reduced_to: 65
  - symbol: C  # 67
    coordinates: [  0.562499399000192,  0.062499399006620,  0.062499399001689 ]
    mass: 12.010700
    reduced_to: 65
  - symbol: C  # 68
    coordinates: [  0.812499399000192,  0.062499399006620,  0.062499399001689 ]
    mass: 12.010700
    reduced_to: 65
  - symbol: C  # 69
    coordinates: [  0.062499399000191,  0.312499399006620,  0.062499399001689 ]
    mass: 12.010700
    reduced_to: 65
  - symbol: C  # 70
    coordinates: [  0.312499399000191,  0.312499399006620,  0.062499399001689 ]
    mass: 12.010700
    reduced_to: 65
  - symbol: C  # 71
    coordinates: [  0.562499399000192,  0.312499399006620,  0.062499399001689 ]
    mass: 12.010700
    reduced_to: 65
  - symbol: C  # 72
    coordinates: [  0.812499399000192,  0.312499399006620,  0.062499399001689 ]
    mass: 12.010700
    reduced_to: 65
  - symbol: C  # 73
    coordinates: [  0.062499399000191,  0.562499399006620,  0.062499399001689 ]
    mass: 12.010700
    reduced_to: 65
  - symbol: C  # 74
    coordinates: [  0.312499399000191,  0.562499399006620,  0.062499399001689 ]
    mass: 12.010700
    reduced_to: 65
  - symbol: C  # 75
    coordinates: [  0.562499399000192,  0.562499399006620,  0.062499399001689 ]
    mass: 12.010700
    reduced_to: 65
  - symbol: C  # 76
    coordinates: [  0.812499399000192,  0.562499399006620,  0.062499399001689 ]
    mass: 12.010700
    reduced_to: 65
  - symbol: C  # 77
    coordinates: [  0.062499399000191,  0.812499399006620,  0.062499399001689 ]
    mass: 12.010700
    reduced_to: 65
  - symbol: C  # 78
    coordinates: [  0.312499399000191,  0.812499399006620,  0.062499399001689 ]
    mass: 12.010700
    reduced_to: 65
  - symbol: C  # 79
    coordinates: [  0.562499399000192,  0.812499399006620,  0.062499399001689 ]
    mass: 12.010700
    reduced_to: 65
  - symbol: C  # 80
    coordinates: [  0.812499399000192,  0.812499399006620,  0.062499399001689 ]
    mass: 12.010700
    reduced_to: 65
  - symbol: C  # 81
    coordinates: [  0.062499399000191,  0.062499399006620,  0.312499399001689 ]
    mass: 12.010700
    reduced_to: 65
  - symbol: C  # 82
    coordinates: [  0.312499399000191,  0.062499399006620,  0.312499399001689 ]
    mass: 12.010700
    reduced_to: 65
  - symbol: C  # 83
    coordinates: [  0.562499399000192,  0.062499399006620,  0.312499399001689 ]
    mass: 12.010700
    reduced_to: 65
  - symbol: C  # 84
    coordinates: [  0.812499399000192,  0.062499399006620,  0.312499399001689 ]
    mass: 12.010700
    reduced_to: 65
  - symbol: C  # 85
    coordinates: [  0.062499399000191,  0.312499399006620,  0.312499399001689 ]
    mass: 12.010700
    reduced_to: 65
  - symbol: C  # 86
    coordinates: [  0.312499399000191,  0.312499399006620,  0.312499399001689 ]
    mass: 12.010700
    reduced_to: 65
  - symbol: C  # 87
    coordinates: [  0.562499399000192,  0.312499399006620,  0.312499399001689 ]
    mass: 12.010700
    reduced_to: 65
  - symbol: C  # 88
    coordinates: [  0.812499399000192,  0.312499399006620,  0.312499399001689 ]
    mass: 12.010700
    reduced_to: 65
  - symbol: C  # 89
    coordinates: [  0.062499399000191,  0.562499399006620,  0.312499399001689 ]
    mass: 12.010700
    reduced_to: 65
  - symbol: C  # 90
    coordinates: [  0.312499399000191,  0.562499399006620,  0.312499399001689 ]
    mass: 12.010700
    reduced_to: 65
  - symbol: C  # 91
    coordinates: [  0.562499399000192,  0.562499399006620,  0.312499399001689 ]
    mass: 12.010700
    reduced_to: 65
  - symbol: C  # 92
    coordinates: [  0.812499399000192,  0.562499399006620,  0.312499399001689 ]
    mass: 12.010700
    reduced_to: 65
  - symbol: C  # 93
    coordinates: [  0.062499399000191,  0.812499399006620,  0.312499399001689 ]
    mass: 12.010700
    reduced_to: 65
  - symbol: C  # 94
    coordinates: [  0.312499399000191,  0.812499399006620,  0.312499399001689 ]
    mass: 12.010700
    reduced_to: 65
  - symbol: C  # 95
    coordinates: [  0.562499399000192,  0.812499399006620,  0.312499399001689 ]
    mass: 12.010700
    reduced_to: 65
  - symbol: C  # 96
    coordinates: [  0.812499399000192,  0.812499399006620,  0.312499399001689 ]
    mass: 12.010700
    reduced_to: 65
  - symbol: C  # 97
    coordinates: [  0.062499399000191,  0.062499399006620,  0.562499399001689 ]
    mass: 12.010700
    reduced_to: 65
  - symbol: C  # 98
    coordinates: [  0.312499399000191,  0.062499399006620,  0.562499399001689 ]
    mass: 12.010700
    reduced_to: 65
  - symbol: C  # 99
    coordinates: [  0.562499399000192,  0.062499399006620,  0.562499399001689 ]
    mass: 12.010700
    reduced_to: 65
  - symbol: C  # 100
    coordinates: [  0.812499399000192,  0.062499399006620,  0.562499399001689 ]
    mass: 12.010700
    reduced_to: 65
  - symbol: C  # 101
    coordinates: [  0.062499399000191,  0.312499399006620,  0.562499399001689 ]
    mass: 12.010700
    reduced_to: 65
  - symbol: C  # 102
    coordinates: [  0.312499399000191,  0.312499399006620,  0.562499399001689 ]
    mass: 12.010700
    reduced_to: 65
  - symbol: C  # 103
    coordinates: [  0.562499399000192,  0.312499399006620,  0.562499399001689 ]
    mass: 12.010700
    reduced_to: 65
  - symbol: C  # 104
    coordinates: [  0.812499399000192,  0.312499399006620,  0.562499399001689 ]
    mass: 12.010700
    reduced_to: 65
  - symbol: C  # 105
    coordinates: [  0.062499399000191,  0.562499399006620,  0.562499399001689 ]
    mass: 12.010700
    reduced_to: 65
  - symbol: C  # 106
    coordinates: [  0.312499399000191,  0.562499399006620,  0.562499399001689 ]
    mass: 12.010700
    reduced_to: 65
  - symbol: C  # 107
    coordinates: [  0.562499399000192,  0.562499399006620,  0.562499399001689 ]
    mass: 12.010700
    reduced_to: 65
  - symbol: C  # 108
    coordinates: [  0.812499399000192,  0.562499399006620,  0.562499399001689 ]
    mass: 12.010700
    reduced_to: 65
  - symbol: C  # 109
    coordinates: [  0.062499399000191,  0.812499399006620,  0.562499399001689 ]
    mass: 12.010700
    reduced_to: 65
  - symbol: C  # 110
    coordinates: [  0.312499399000191,  0.812499399006620,  0.562499399001689 ]
    mass: 12.010700
    reduced_to: 65
  - symbol: C  # 111
    coordinates: [  0.562499399000192,  0.812499399006620,  0.562499399001689 ]
    mass: 12.010700
    reduced_to: 65
  - symbol: C  # 112
    coordinates: [  0.812499399000192,  0.812499399006620,  0.562499399001689 ]
    mass: 12.010700
    reduced_to: 65
  - symbol: C  # 113
    coordinates: [  0.062499399000191,  0.062499399006620,  0.812499399001689 ]
    mass: 12.010700
    reduced_to: 65
  - symbol: C  # 114
    coordinates: [  0.312499399000191,  0.062499399006620,  0.812499399001689 ]
    mass: 12.010700
    reduced_to: 65
  - symbol: C  # 115
    coordinates: [  0.562499399000192,  0.062499399006620,  0.812499399001689 ]
    mass: 12.010700
    reduced_to: 65
  - symbol: C  # 116
    coordinates: [  0.812499399000192,  0.062499399006620,  0.812499399001689 ]
    mass: 12.010700
    reduced_to: 65
  - symbol: C  # 117
    coordinates: [  0.062499399000191,  0.312499399006620,  0.812499399001689 ]
    mass: 12.010700
    reduced_to: 65
  - symbol: C  # 118
    coordinates: [  0.312499399000191,  0.312499399006620,  0.812499399001689 ]
    mass: 12.010700
    reduced_to: 65
  - symbol: C  # 119
    coordinates: [  0.562499399000192,  0.312499399006620,  0.812499399001689 ]
    mass: 12.010700
    reduced_to: 65
  - symbol: C  # 120
    coordinates: [  0.812499399000192,  0.312499399006620,  0.812499399001689 ]
    mass: 12.010700
    reduced_to: 65
  - symbol: C  # 121
    coordinates: [  0.062499399000191,  0.562499399006620,  0.812499399001689 ]
    mass: 12.010700
    reduced_to: 65
  - symbol: C  # 122
    coordinates: [  0.312499399000191,  0.562499399006620,  0.812499399001689 ]
    mass: 12.010700
    reduced_to: 65
  - symbol: C  # 123
    coordinates: [  0.562499399000192,  0.562499399006620,  0.812499399001689 ]
    mass: 12.010700
    reduced_to: 65
  - symbol: C  # 124
    coordinates: [  0.812499399000192,  0.562499399006620,  0.812499399001689 ]
    mass: 12.010700
    reduced_to: 65
  - symbol: C  # 125
    coordinates: [  0.062499399000191,  0.812499399006620,  0.812499399001689 ]
    mass: 12.010700
    reduced_to: 65
  - symbol: C  # 126
    coordinates: [  0.312499399000191,  0.812499399006620,  0.812499399001689 ]
    mass: 12.010700
    reduced_to: 65
  - symbol: C  # 127
    coordinates: [  0.562499399000192,  0.812499399006620,  0.812499399001689 ]
    mass: 12.010700
    reduced_to: 65
  - symbol: C  # 128
    coordinates: [  0.812499399000192,  0.812499399006620,  0.812499399001689 ]
    mass: 12.010700
    reduced_to: 65

displacements:
- atom:    1
  displacement:
    [   0.0500000000000000,  0.0000000000000000,  0.0000000000000000 ]
