LAMMPS data file via write_data, version 2 Aug 2023, timestep = 25, units = metal

2 atoms
2 atom types

-0.029776670318137608 2.529952099318137 xlo xhi
-0.025787356773188407 2.191002792173187 ylo yhi
-0.02431255375413379 2.0656972432541343 zlo zhi
1.2798643892498132 1.279864390020779 0.7389300501280364 xy xz yz

Masses

1 196.96655
2 12.0107

Atoms # atomic

1 2 5.089668193658827 2.9299255184925137 2.0656920644762864 0 0 0
2 2 1.2500750636326914 0.7131353877776214 0.4981847299345874 0 0 0

Velocities

1 0 0 0
2 0 0 0
