ITEM: TIMESTEP
0
ITEM: NUMBER OF ATOMS
54
ITEM: BOX BOUNDS xy xz yz pp pp pp
0.0000000000000000e+00 1.5001052573999999e+01 3.7502631434999998e+00
0.0000000000000000e+00 8.6608617416999998e+00 3.7502631434999998e+00
0.0000000000000000e+00 6.1241540684999993e+00 2.1652154355000000e+00
ITEM: ATOMS id type x y z fx fy fz
1 1 5.10034 2.88695 2.04138 -4.74355 -0.455519 -0.322101
2 1 7.50051 2.88695 2.04138 0.38504 0.0833312 0.0589241
3 1 10.0007 2.88695 2.04138 0.295334 -0.0806368 -0.0570188
4 1 6.25043 5.05216 2.04138 0.00973184 0.107637 -0.0390866
5 1 8.7506 5.05216 2.04138 0.00225079 -0.00477778 0.00428282
6 1 11.2508 5.05216 2.04138 0.0204832 -0.111367 0.0319149
7 1 7.50051 7.21738 2.04138 0.0125993 0.266079 -0.0950767
8 1 10.0007 7.21738 2.04138 0.00934499 -0.265767 0.093446
9 1 12.5009 7.21738 2.04138 0.00278961 -0.00035817 0.00371472
10 1 6.25043 3.60869 4.08276 0.00973184 -0.000972308 0.11451
11 1 8.7506 3.60869 4.08276 0.00225079 0.00244529 -0.00593214
12 1 11.2508 3.60869 4.08276 0.0204832 -0.00703254 -0.115636
13 1 7.50051 5.7739 4.08276 0.00998067 -0.00527444 -0.0037296
14 1 10.0007 5.7739 4.08276 0.0115672 0.00446106 0.00315444
15 1 12.5009 5.7739 4.08276 -0.0100194 -0.0028134 -0.00198937
16 1 8.7506 7.93912 4.08276 0.0105038 0.00266849 -0.00241143
17 1 11.2508 7.93912 4.08276 0.0156962 -0.0162843 0.0213705
18 1 13.751 7.93912 4.08276 0.0081299 0.00914426 -0.0155943
19 1 7.50051 4.33042 6.12415 0.0125993 -0.000946066 0.282554
20 1 10.0007 4.33042 6.12415 0.00934499 -0.0004873 -0.281716
21 1 12.5009 4.33042 6.12415 0.00278961 0.00338288 -0.00157593
22 1 8.7506 6.49564 6.12415 0.0105038 -0.00138402 0.00331969
23 1 11.2508 6.49564 6.12415 0.0156962 0.0147202 -0.0224765
24 1 13.751 6.49564 6.12415 0.0081299 -0.0116543 0.0138194
25 1 10.0007 8.66085 6.12415 0.0114553 -0.00463437 -0.00327699
26 1 12.5009 8.66085 6.12415 -0.011538 -0.00522953 -0.00369784
27 1 15.001 8.66085 6.12415 0.0107387 0.00515136 0.00364256
28 1 1.25008 0.721732 0.510341 -0.0284889 -9.45598e-05 -6.68636e-05
29 1 3.75025 0.721732 0.510341 -0.0120651 0.00366096 0.00258869
30 1 6.25043 0.721732 0.510341 -0.00354494 -0.00292816 -0.00207052
31 1 2.50016 2.88695 0.510341 -0.012581 0.0021481 -0.0105394
32 1 5.00034 2.88695 0.510341 0.703311 0.0313164 0.027301
33 1 7.50051 2.88695 0.510341 -0.0117548 -0.0119319 0.0087091
34 1 3.75025 5.05216 0.510341 -0.0194192 -0.000302808 -0.0111966
35 1 6.25043 5.05216 0.510341 -0.0213583 -0.00682364 0.0152121
36 1 8.7506 5.05216 0.510341 0.0104532 -5.38717e-05 -0.00547861
37 1 2.50016 1.44347 2.55173 -0.012581 -0.00922059 0.00553837
38 1 5.00034 1.44347 2.55173 0.703311 0.0361784 0.020425
39 1 7.50051 1.44347 2.55173 -0.0117548 0.00423371 -0.0141526
40 1 3.75025 3.60869 2.55173 0.931004 -0.117116 -0.0828134
41 1 6.25043 3.60869 2.55173 1.56391 0.542485 0.383595
42 1 8.7506 3.60869 2.55173 0.0331328 0.000195497 0.000138238
43 1 5.00034 5.7739 2.55173 -0.000372232 0.00371018 0.00416275
44 1 7.50051 5.7739 2.55173 0.0227921 0.00661833 0.0301254
45 1 10.0007 5.7739 2.55173 0.0248445 -0.0126579 -0.0266931
46 1 3.75025 2.16521 4.59311 -0.0194192 -0.0106572 0.00344671
47 1 6.25043 2.16521 4.59311 -0.0213583 0.0120675 -0.0115041
48 1 8.7506 2.16521 4.59311 0.0104532 -0.00518324 0.00177541
49 1 5.00034 4.33042 4.59311 -0.000372232 0.0051614 0.0021104
50 1 7.50051 4.33042 4.59311 0.0227921 0.0306086 -0.00380198
51 1 10.0007 4.33042 4.59311 0.0248445 -0.0293858 -0.00303633
52 1 6.25043 6.49564 4.59311 0.00311355 0.00527004 0.00372648
53 1 8.7506 6.49564 4.59311 -0.0277835 -0.000295389 -0.000208871
54 1 11.2508 6.49564 4.59311 0.00683034 -0.000886417 -0.000626791
