nqpoint: 404    
npath: 4      
segment_nqpoint:
- 101
- 101
- 101
- 101
labels:
- [ 'Gamma', 'X' ]
- [ 'X', 'K' ]
- [ 'K', 'Gamma' ]
- [ 'Gamma', 'L' ]
reciprocal_lattice:
- [   0.39997193,  -0.23092390,  -0.16328786 ] # a*
- [   0.00000000,   0.46184781,  -0.16328786 ] # b*
- [   0.00000000,   0.00000000,   0.48986357 ] # c*
natom: 2      
lattice:
- [     2.500175429000000,     0.000000000000000,     0.000000000000000 ] # a
- [     1.250087714500000,     2.165215435399999,     0.000000000000000 ] # b
- [     1.250087714500000,     0.721738478500000,     2.041384689500000 ] # c
points:
- symbol: C # 1
  coordinates: [  0.999997454617902,  0.999997454587760,  0.999997454570897 ]
  mass: 12.010700
- symbol: C # 2
  coordinates: [  0.249997596000766,  0.249997596026479,  0.249997596006757 ]
  mass: 12.010700

phonon:
- q-position: [    0.0000000,    0.0000000,    0.0000000 ]
  distance:    0.0000000
  band:
  - # 1
    frequency:   -0.0000001725
    eigenvector:
    - # atom 1
      - [  0.68540728131625,  0.00000000000000 ]
      - [ -0.17354564485749,  0.00000000000000 ]
      - [  0.00993820261907,  0.00000000000000 ]
    - # atom 2
      - [  0.68540728131357,  0.00000000000000 ]
      - [ -0.17354564485864,  0.00000000000000 ]
      - [  0.00993820261945,  0.00000000000000 ]
  - # 2
    frequency:    0.0000005095
    eigenvector:
    - # atom 1
      - [ -0.02676995685134,  0.00000000000000 ]
      - [ -0.06543620050401,  0.00000000000000 ]
      - [  0.70356341084037,  0.00000000000000 ]
    - # atom 2
      - [ -0.02676995684978,  0.00000000000000 ]
      - [ -0.06543620050279,  0.00000000000000 ]
      - [  0.70356341084117,  0.00000000000000 ]
  - # 3
    frequency:    0.0000006821
    eigenvector:
    - # atom 1
      - [  0.17175630448658,  0.00000000000000 ]
      - [  0.68234889375884,  0.00000000000000 ]
      - [  0.06999827894091,  0.00000000000000 ]
    - # atom 2
      - [  0.17175630448562,  0.00000000000000 ]
      - [  0.68234889375967,  0.00000000000000 ]
      - [  0.06999827894250,  0.00000000000000 ]
  - # 4
    frequency:   40.0096515921
    eigenvector:
    - # atom 1
      - [ -0.25700168774932,  0.00000000000000 ]
      - [ -0.36525800858323,  0.00000000000000 ]
      - [ -0.54821229433600,  0.00000000000000 ]
    - # atom 2
      - [  0.25700168775030,  0.00000000000000 ]
      - [  0.36525800858181,  0.00000000000000 ]
      - [  0.54821229433407,  0.00000000000000 ]
  - # 5
    frequency:   40.0096515923
    eigenvector:
    - # atom 1
      - [  0.60357370563797,  0.00000000000000 ]
      - [ -0.36631451659213,  0.00000000000000 ]
      - [ -0.03889031750229,  0.00000000000000 ]
    - # atom 2
      - [ -0.60357370563998,  0.00000000000000 ]
      - [  0.36631451659120,  0.00000000000000 ]
      - [  0.03889031750278,  0.00000000000000 ]
  - # 6
    frequency:   40.0096515924
    eigenvector:
    - # atom 1
      - [ -0.26391080757409,  0.00000000000000 ]
      - [ -0.48207910357157,  0.00000000000000 ]
      - [  0.44491664786128,  0.00000000000000 ]
    - # atom 2
      - [  0.26391080757627,  0.00000000000000 ]
      - [  0.48207910357193,  0.00000000000000 ]
      - [ -0.44491664786207,  0.00000000000000 ]

- q-position: [    0.0050000,    0.0000000,    0.0050000 ]
  distance:    0.0028282
  band:
  - # 1
    frequency:    0.4970096203
    eigenvector:
    - # atom 1
      - [  0.50000000000816,  0.00000000000000 ]
      - [ -0.28867513457483,  0.00000000004335 ]
      - [  0.40824829046828,  0.00000000003936 ]
    - # atom 2
      - [  0.50000000000731, -0.00000000444256 ]
      - [ -0.28867513457505,  0.00000000260811 ]
      - [  0.40824829046861, -0.00000000358790 ]
  - # 2
    frequency:    0.3375056375
    eigenvector:
    - # atom 1
      - [ -0.34886204844205,  0.00000000000000 ]
      - [ -0.16856890569308, -0.41228807447567 ]
      - [  0.30807078842195, -0.29153169322852 ]
    - # atom 2
      - [ -0.35064449501587, -0.00014235113849 ]
      - [ -0.16959841664992, -0.41034918799067 ]
      - [  0.30952585654466, -0.28998634962104 ]
  - # 3
    frequency:    0.3375056374
    eigenvector:
    - # atom 1
      - [ -0.35818329267388, -0.00000000000000 ]
      - [ -0.23878912081029,  0.40155882525323 ]
      - [  0.26983374406630,  0.28394496835935 ]
    - # atom 2
      - [ -0.35643849205334,  0.00013865284062 ]
      - [ -0.23778135551838,  0.40370362226742 ]
      - [  0.26840940612817,  0.28529175451777 ]
  - # 4
    frequency:   40.0085480488
    eigenvector:
    - # atom 1
      - [  0.02106214203751,  0.00000000000000 ]
      - [ -0.56323625151602, -0.04075157475316 ]
      - [ -0.42406399821111, -0.02881572016971 ]
    - # atom 2
      - [ -0.02088526509136, -0.00249371036485 ]
      - [  0.56333116677872,  0.03943302345013 ]
      - [  0.42391448430420,  0.03093752258203 ]
  - # 5
    frequency:   40.0101657306
    eigenvector:
    - # atom 1
      - [  0.49999999117489,  0.00000000000000 ]
      - [ -0.28867517555249, -0.00000000012251 ]
      - [  0.40824827231065,  0.00000000011258 ]
    - # atom 2
      - [ -0.49999999117610,  0.00000000428708 ]
      - [  0.28867517555262, -0.00000000258306 ]
      - [ -0.40824827230961,  0.00000000360554 ]
  - # 6
    frequency:   40.0085480490
    eigenvector:
    - # atom 1
      - [  0.49955619803569,  0.00000000000000 ]
      - [  0.31267862909614,  0.00171815607594 ]
      - [ -0.39073168775792,  0.00121491983724 ]
    - # atom 2
      - [ -0.49955738897690,  0.00010514368768 ]
      - [ -0.31267901289772,  0.00122927197815 ]
      - [  0.39073287496634,  0.00074045233465 ]

- q-position: [    0.0100000,    0.0000000,    0.0100000 ]
  distance:    0.0056565
  band:
  - # 1
    frequency:    0.9939173986
    eigenvector:
    - # atom 1
      - [  0.50000000000926,  0.00000000000000 ]
      - [ -0.28867513457402,  0.00000000002179 ]
      - [  0.40824829046749,  0.00000000001965 ]
    - # atom 2
      - [  0.50000000000842, -0.00000000888513 ]
      - [ -0.28867513457425,  0.00000000515129 ]
      - [  0.40824829046782, -0.00000000723487 ]
  - # 2
    frequency:    0.6749600718
    eigenvector:
    - # atom 1
      - [ -0.35154019434309,  0.00000000000000 ]
      - [ -0.13391623017472, -0.40471227811922 ]
      - [  0.33585397568773, -0.28617479625497 ]
    - # atom 2
      - [ -0.35503153794313, -0.00059863713120 ]
      - [ -0.13593542581223, -0.40097369204325 ]
      - [  0.33870219393016, -0.28279803893309 ]
  - # 3
    frequency:    0.6749600718
    eigenvector:
    - # atom 1
      - [ -0.35555518805665, -0.00000000000000 ]
      - [ -0.27354580379054,  0.40014219365360 ]
      - [  0.24203830022700,  0.28294325854503 ]
    - # atom 2
      - [ -0.35206803086256,  0.00059188970597 ]
      - [ -0.27152906418754,  0.40457421109003 ]
      - [  0.23919347258862,  0.28535225424776 ]
  - # 4
    frequency:   40.0052374434
    eigenvector:
    - # atom 1
      - [  0.02111873020075,  0.00000000000000 ]
      - [ -0.55888031460531, -0.08132670748613 ]
      - [ -0.42105313542582, -0.05750666900897 ]
    - # atom 2
      - [ -0.02041254796901, -0.00495135443719 ]
      - [  0.55925941012762,  0.07870809568034 ]
      - [  0.42045630337365,  0.06171917679708 ]
  - # 5
    frequency:   40.0117059335
    eigenvector:
    - # atom 1
      - [  0.49999999779189,  0.00000000000000 ]
      - [ -0.28867514483723, -0.00000000006126 ]
      - [  0.40824828592548,  0.00000000005627 ]
    - # atom 2
      - [ -0.49999999779311,  0.00000000880726 ]
      - [  0.28867514483736, -0.00000000513883 ]
      - [ -0.40824828592444,  0.00000000724370 ]
  - # 6
    frequency:   40.0052374436
    eigenvector:
    - # atom 1
      - [  0.49955380234843,  0.00000000000000 ]
      - [  0.31255975557656,  0.00343810179407 ]
      - [ -0.39081282851915,  0.00243110510548 ]
    - # atom 2
      - [ -0.49955857550962,  0.00020932840307 ]
      - [ -0.31256130138603,  0.00245794352949 ]
      - [  0.39081758136945,  0.00148165463697 ]

- q-position: [    0.0150000,    0.0000000,    0.0150000 ]
  distance:    0.0084847
  band:
  - # 1
    frequency:    1.4906215318
    eigenvector:
    - # atom 1
      - [  0.50000000000910,  0.00000000000000 ]
      - [ -0.28867513457402,  0.00000000001465 ]
      - [  0.40824829046770,  0.00000000001307 ]
    - # atom 2
      - [  0.50000000000825, -0.00000001332769 ]
      - [ -0.28867513457425,  0.00000000770890 ]
      - [  0.40824829046803, -0.00000001086871 ]
  - # 2
    frequency:    1.0123120977
    eigenvector:
    - # atom 1
      - [ -0.34748285784656,  0.00000000000000 ]
      - [ -0.09365828245080, -0.40112369761670 ]
      - [  0.35935144143973, -0.28363728664776 ]
    - # atom 2
      - [ -0.35266287855178, -0.00139171982439 ]
      - [ -0.09666105238355, -0.39585354528775 ]
      - [  0.36357236625224, -0.27820622448145 ]
  - # 3
    frequency:    1.0123120976
    eigenvector:
    - # atom 1
      - [ -0.35952143676801,  0.00000000000000 ]
      - [ -0.31094924588670,  0.38769206659300 ]
      - [  0.22044771546323,  0.27413968927327 ]
    - # atom 2
      - [ -0.35443638047572,  0.00134513660503 ]
      - [ -0.30800170798173,  0.39466216716933 ]
      - [  0.21630404289054,  0.27742084549896 ]
  - # 4
    frequency:   39.9997198510
    eigenvector:
    - # atom 1
      - [  0.02122458999783,  0.00000000000000 ]
      - [ -0.55163863548066, -0.12148149778730 ]
      - [ -0.41606213582375, -0.08590039263695 ]
    - # atom 2
      - [ -0.01964153154892, -0.00733711871171 ]
      - [  0.55248896946650,  0.11759990316139 ]
      - [  0.41472457003488,  0.09214178926795 ]
  - # 5
    frequency:   40.0142655715
    eigenvector:
    - # atom 1
      - [  0.49999999901685,  0.00000000000000 ]
      - [ -0.28867513914947, -0.00000000004085 ]
      - [  0.40824828844707,  0.00000000003750 ]
    - # atom 2
      - [ -0.49999999901807,  0.00000001327564 ]
      - [  0.28867513914960, -0.00000000770066 ]
      - [ -0.40824828844603,  0.00000001087461 ]
  - # 6
    frequency:   39.9997198513
    eigenvector:
    - # atom 1
      - [  0.49954931464325,  0.00000000000000 ]
      - [  0.31237331046470,  0.00516144237941 ]
      - [ -0.39093917227050,  0.00364969091559 ]
    - # atom 2
      - [ -0.49956008720065,  0.00031174905234 ]
      - [ -0.31237682564577,  0.00368567904497 ]
      - [  0.39094988029454,  0.00222435558466 ]

- q-position: [    0.0200000,    0.0000000,    0.0200000 ]
  distance:    0.0113129
  band:
  - # 1
    frequency:    1.9870202950
    eigenvector:
    - # atom 1
      - [  0.50000000000909,  0.00000000000000 ]
      - [ -0.28867513457401,  0.00000000001112 ]
      - [  0.40824829046771,  0.00000000000977 ]
    - # atom 2
      - [  0.50000000000824, -0.00000001777026 ]
      - [ -0.28867513457424,  0.00000001027012 ]
      - [  0.40824829046804, -0.00000001449926 ]
  - # 2
    frequency:    1.3495105047
    eigenvector:
    - # atom 1
      - [ -0.34653010978923,  0.00000000000000 ]
      - [ -0.06021398117361, -0.39199874215859 ]
      - [  0.38183326035977, -0.27718496876648 ]
    - # atom 2
      - [ -0.35326566776281, -0.00242790742020 ]
      - [ -0.06413087335336, -0.38530060822746 ]
      - [  0.38731293942432, -0.26947510568205 ]
  - # 3
    frequency:    1.3495105047
    eigenvector:
    - # atom 1
      - [ -0.36043984657973,  0.00000000000000 ]
      - [ -0.34255815763660,  0.37687111581005 ]
      - [  0.19922165733359,  0.26648812159591 ]
    - # atom 2
      - [ -0.35382485013708,  0.00233423667240 ]
      - [ -0.33871195614328,  0.38648615735536 ]
      - [  0.19383964952550,  0.27042813828183 ]
  - # 4
    frequency:   39.9919954029
    eigenvector:
    - # atom 1
      - [  0.02137800186968,  0.00000000000000 ]
      - [ -0.54155357336517, -0.16100623148087 ]
      - [ -0.40911880676655, -0.11384859940863 ]
    - # atom 2
      - [ -0.01857860097398, -0.00961576546096 ]
      - [  0.54305851481324,  0.15591703079389 ]
      - [  0.40675440917972,  0.12202685052466 ]
  - # 5
    frequency:   40.0178336195
    eigenvector:
    - # atom 1
      - [  0.49999999944570,  0.00000000000000 ]
      - [ -0.28867513715871, -0.00000000003066 ]
      - [  0.40824828932953,  0.00000000002811 ]
    - # atom 2
      - [ -0.49999999944691,  0.00000001773107 ]
      - [  0.28867513715885, -0.00000001026401 ]
      - [ -0.40824828932848,  0.00000001450370 ]
  - # 6
    frequency:   39.9919954031
    eigenvector:
    - # atom 1
      - [  0.49954277253137,  0.00000000000000 ]
      - [  0.31211521874836,  0.00689028391984 ]
      - [ -0.39111365946039,  0.00487216649041 ]
    - # atom 2
      - [ -0.49956201200859,  0.00041152583143 ]
      - [ -0.31212156343613,  0.00491160066258 ]
      - [  0.39113273653767,  0.00296901197725 ]

- q-position: [    0.0250000,    0.0000000,    0.0250000 ]
  distance:    0.0141411
  band:
  - # 1
    frequency:    2.4830120806
    eigenvector:
    - # atom 1
      - [  0.50000000000909, -0.00000000000000 ]
      - [ -0.28867513457406,  0.00000000000903 ]
      - [  0.40824829046767,  0.00000000000778 ]
    - # atom 2
      - [  0.50000000000825, -0.00000002221282 ]
      - [ -0.28867513457428,  0.00000001283278 ]
      - [  0.40824829046801, -0.00000001812851 ]
  - # 2
    frequency:    1.6865040760
    eigenvector:
    - # atom 1
      - [ -0.34536880510110,  0.00000000000000 ]
      - [ -0.03070725335693, -0.38188613829611 ]
      - [  0.40127536572324, -0.27003427800107 ]
    - # atom 2
      - [ -0.35355427330990, -0.00366375480841 ]
      - [ -0.03548620885722, -0.37387999581807 ]
      - [  0.40792124409262, -0.25988591545268 ]
  - # 3
    frequency:    1.6865040759
    eigenvector:
    - # atom 1
      - [ -0.36155274643678,  0.00000000000000 ]
      - [ -0.36988307019732,  0.36479202708930 ]
      - [  0.18126304476413,  0.25794691605151 ]
    - # atom 2
      - [ -0.35351620076501,  0.00349978733553 ]
      - [ -0.36519246995634,  0.37716787280259 ]
      - [  0.17473708190871,  0.26241161388917 ]
  - # 4
    frequency:   39.9820642949
    eigenvector:
    - # atom 1
      - [  0.02158059954763,  0.00000000000000 ]
      - [ -0.52868561657940, -0.19968540530795 ]
      - [ -0.40026791604152, -0.14119890524224 ]
    - # atom 2
      - [ -0.01723689327846, -0.01175300124759 ]
      - [  0.53102326493101,  0.19346191645815 ]
      - [  0.39660095106691,  0.15119266207509 ]
  - # 5
    frequency:   40.0223946934
    eigenvector:
    - # atom 1
      - [ -0.49999999964423,  0.00000000000000 ]
      - [  0.28867513623731,  0.00000000002454 ]
      - [ -0.40824828973790, -0.00000000002247 ]
    - # atom 2
      - [  0.49999999964545, -0.00000002218132 ]
      - [ -0.28867513623745,  0.00000001282797 ]
      - [  0.40824828973685, -0.00000001813208 ]
  - # 6
    frequency:   39.9820642951
    eigenvector:
    - # atom 1
      - [ -0.49953406097773,  0.00000000000000 ]
      - [ -0.31178438621108, -0.00862670059206 ]
      - [  0.39133692451816, -0.00609999849312 ]
    - # atom 2
      - [  0.49956430917248, -0.00050776904263 ]
      - [  0.31179449684311, -0.00613485438290 ]
      - [ -0.39136682154106, -0.00371610959989 ]

- q-position: [    0.0300000,    0.0000000,    0.0300000 ]
  distance:    0.0169694
  band:
  - # 1
    frequency:    2.9784954382
    eigenvector:
    - # atom 1
      - [  0.50000000000906, -0.00000000000000 ]
      - [ -0.28867513457413,  0.00000000000766 ]
      - [  0.40824829046767,  0.00000000000645 ]
    - # atom 2
      - [  0.50000000000821, -0.00000002665539 ]
      - [ -0.28867513457435,  0.00000001539617 ]
      - [  0.40824829046800, -0.00000002175710 ]
  - # 2
    frequency:    2.0232415860
    eigenvector:
    - # atom 1
      - [ -0.34389782945660,  0.00000000000000 ]
      - [ -0.00277702099186, -0.37056557485211 ]
      - [  0.41922345254799, -0.26202943082411 ]
    - # atom 2
      - [ -0.35340964528216, -0.00510760513009 ]
      - [ -0.00835754690573, -0.36138339836745 ]
      - [  0.42692697248368, -0.24928113837816 ]
  - # 3
    frequency:    2.0232415859
    eigenvector:
    - # atom 1
      - [ -0.36295217713635, -0.00000000000000 ]
      - [ -0.39504531128583,  0.35111153726121 ]
      - [  0.16518459903662,  0.24827334892489 ]
    - # atom 2
      - [ -0.35362708352931,  0.00483950159289 ]
      - [ -0.38957725407720,  0.36637197024193 ]
      - [  0.15763023879980,  0.25313694981449 ]
  - # 4
    frequency:   39.9699267994
    eigenvector:
    - # atom 1
      - [  0.02182200302476,  0.00000000000000 ]
      - [ -0.51309081829929, -0.23737876441643 ]
      - [ -0.38953638517965, -0.16785213489217 ]
    - # atom 2
      - [ -0.01561898434208, -0.01371502982244 ]
      - [  0.51643354497500,  0.23011172143689 ]
      - [  0.38430293456092,  0.17951097195786 ]
  - # 5
    frequency:   40.0279290999
    eigenvector:
    - # atom 1
      - [ -0.49999999975203,  0.00000000000000 ]
      - [  0.28867513573668,  0.00000000002046 ]
      - [ -0.40824828995987, -0.00000000001870 ]
    - # atom 2
      - [  0.49999999975324, -0.00000002662898 ]
      - [ -0.28867513573683,  0.00000001539223 ]
      - [  0.40824828995883, -0.00000002176009 ]
  - # 6
    frequency:   39.9699267997
    eigenvector:
    - # atom 1
      - [ -0.49952357344767,  0.00000000000000 ]
      - [ -0.31136515962941, -0.01037004137647 ]
      - [  0.39162051823124, -0.00733272658291 ]
    - # atom 2
      - [  0.49956739937819, -0.00059917644095 ]
      - [  0.31138003875297, -0.00735708874010 ]
      - [ -0.39166367268369, -0.00446840906058 ]

- q-position: [    0.0350000,    0.0000000,    0.0350000 ]
  distance:    0.0197976
  band:
  - # 1
    frequency:    3.4733691137
    eigenvector:
    - # atom 1
      - [  0.50000000000904, -0.00000000000000 ]
      - [ -0.28867513457417,  0.00000000000671 ]
      - [  0.40824829046767,  0.00000000000549 ]
    - # atom 2
      - [  0.50000000000819, -0.00000003109795 ]
      - [ -0.28867513457438,  0.00000001795996 ]
      - [  0.40824829046800, -0.00000002538531 ]
  - # 2
    frequency:    2.3596717996
    eigenvector:
    - # atom 1
      - [ -0.34288165818531,  0.00000000000000 ]
      - [  0.02136101756645, -0.35843169495472 ]
      - [  0.43504707274091, -0.25344948206768 ]
    - # atom 2
      - [ -0.35359256500826, -0.00668391109862 ]
      - [  0.01504121311341, -0.34813616552909 ]
      - [  0.44369642435778, -0.23798335755656 ]
  - # 3
    frequency:    2.3596717996
    eigenvector:
    - # atom 1
      - [ -0.36391230876832,  0.00000000000000 ]
      - [ -0.41675388482236,  0.33771777143611 ]
      - [  0.15101023577415,  0.23880252628513 ]
    - # atom 2
      - [ -0.35339491001297,  0.00629768766964 ]
      - [ -0.41055365194962,  0.35593164752348 ]
      - [  0.14251333229889,  0.24396862090429 ]
  - # 4
    frequency:   39.9555832814
    eigenvector:
    - # atom 1
      - [  0.02212457590774,  0.00000000000000 ]
      - [ -0.49490287776654, -0.27376127117128 ]
      - [ -0.37704614312740, -0.19357845200424 ]
    - # atom 2
      - [ -0.01376795033072, -0.01547153149818 ]
      - [  0.49941316567055,  0.26555819340362 ]
      - [  0.37000066397184,  0.20672667894275 ]
  - # 5
    frequency:   40.0344129012
    eigenvector:
    - # atom 1
      - [ -0.49999999981703,  0.00000000000000 ]
      - [  0.28867513543490,  0.00000000001755 ]
      - [ -0.40824829009365, -0.00000000001601 ]
    - # atom 2
      - [  0.49999999981825, -0.00000003107516 ]
      - [ -0.28867513543505,  0.00000001795666 ]
      - [  0.40824829009259, -0.00000002538789 ]
  - # 6
    frequency:   39.9555832816
    eigenvector:
    - # atom 1
      - [ -0.49951026347997,  0.00000000000000 ]
      - [ -0.31087866517180, -0.01212558074586 ]
      - [  0.39194822062924, -0.00857408037512 ]
    - # atom 2
      - [  0.49957042126046, -0.00068530448434 ]
      - [  0.31089946990679, -0.00857447745662 ]
      - [ -0.39200718739115, -0.00522374799851 ]

- q-position: [    0.0400000,    0.0000000,    0.0400000 ]
  distance:    0.0226258
  band:
  - # 1
    frequency:    3.9675320899
    eigenvector:
    - # atom 1
      - [  0.50000000000900, -0.00000000000000 ]
      - [ -0.28867513457425,  0.00000000000601 ]
      - [  0.40824829046765,  0.00000000000477 ]
    - # atom 2
      - [  0.50000000000816, -0.00000003554051 ]
      - [ -0.28867513457446,  0.00000002052402 ]
      - [  0.40824829046799, -0.00000002901329 ]
  - # 2
    frequency:    2.6957434715
    eigenvector:
    - # atom 1
      - [ -0.34155520178417,  0.00000000000000 ]
      - [  0.04314429760084, -0.34644305751413 ]
      - [  0.44882560709265, -0.24497223523736 ]
    - # atom 2
      - [ -0.35336132608437, -0.00838259147490 ]
      - [  0.03613301353827, -0.33511802264293 ]
      - [  0.45832737077692, -0.22669769036540 ]
  - # 3
    frequency:    2.6957434714
    eigenvector:
    - # atom 1
      - [ -0.36515756068746,  0.00000000000000 ]
      - [ -0.43563037901667,  0.32405033102965 ]
      - [  0.13918765462819,  0.22913818649314 ]
    - # atom 2
      - [ -0.35355908542473,  0.00784082211759 ]
      - [ -0.42875158392916,  0.34529561565405 ]
      - [  0.12984652418845,  0.23455786464443 ]
  - # 4
    frequency:   39.9390342166
    eigenvector:
    - # atom 1
      - [  0.02249172859169,  0.00000000000000 ]
      - [ -0.47431518039793, -0.30853974277001 ]
      - [ -0.36293811071786, -0.21817054501154 ]
    - # atom 2
      - [ -0.01171224152596, -0.01699606229711 ]
      - [  0.48014338961263,  0.29952265983350 ]
      - [  0.35385715547581,  0.23261034465245 ]
  - # 5
    frequency:   40.0418179925
    eigenvector:
    - # atom 1
      - [ -0.49999999985923,  0.00000000000000 ]
      - [  0.28867513523900,  0.00000000001537 ]
      - [ -0.40824829018049, -0.00000000001399 ]
    - # atom 2
      - [  0.49999999986044, -0.00000003552041 ]
      - [ -0.28867513523916,  0.00000002052120 ]
      - [  0.40824829017943, -0.00000002901556 ]
  - # 6
    frequency:   39.9390342169
    eigenvector:
    - # atom 1
      - [ -0.49949386611218,  0.00000000000000 ]
      - [ -0.31032560437492, -0.01389324801045 ]
      - [  0.39231921119558, -0.00982400988440 ]
    - # atom 2
      - [  0.49957318947566, -0.00076535191293 ]
      - [  0.31035359873044, -0.00978834544576 ]
      - [ -0.39239656707754, -0.00598404460789 ]

- q-position: [    0.0450000,    0.0000000,    0.0450000 ]
  distance:    0.0254541
  band:
  - # 1
    frequency:    4.4608836268
    eigenvector:
    - # atom 1
      - [  0.50000000000899, -0.00000000000000 ]
      - [ -0.28867513457430,  0.00000000000549 ]
      - [  0.40824829046762,  0.00000000000421 ]
    - # atom 2
      - [  0.50000000000815, -0.00000003998308 ]
      - [ -0.28867513457451,  0.00000002308824 ]
      - [  0.40824829046796, -0.00000003264112 ]
  - # 2
    frequency:    3.0314053461
    eigenvector:
    - # atom 1
      - [ -0.34086263697678,  0.00000000000000 ]
      - [  0.06137756669241, -0.33430929828136 ]
      - [  0.46087026011247, -0.23639237180367 ]
    - # atom 2
      - [ -0.35364997067470, -0.01014634436141 ]
      - [  0.05372879609411, -0.32196151369953 ]
      - [  0.47112298392205, -0.21523448637366 ]
  - # 3
    frequency:    3.0314053460
    eigenvector:
    - # atom 1
      - [ -0.36580413161456,  0.00000000000000 ]
      - [ -0.45176878072644,  0.31151520481076 ]
      - [  0.12856796577055,  0.22027451374156 ]
    - # atom 2
      - [ -0.35318459843813,  0.00945459432093 ]
      - [ -0.44423502352941,  0.33582124815968 ]
      - [  0.11843942803664,  0.22588201591294 ]
  - # 4
    frequency:   39.9202802137
    eigenvector:
    - # atom 1
      - [  0.02290901386483,  0.00000000000000 ]
      - [ -0.45135608868309, -0.34175512239506 ]
      - [ -0.34721464902972, -0.24165736510603 ]
    - # atom 2
      - [ -0.00945429640514, -0.01825828827488 ]
      - [  0.45864558206302,  0.33206202226645 ]
      - [  0.33589050302540,  0.25716505319899 ]
  - # 5
    frequency:   40.0501121930
    eigenvector:
    - # atom 1
      - [ -0.49999999988814,  0.00000000000000 ]
      - [  0.28867513510470,  0.00000000001367 ]
      - [ -0.40824829024005, -0.00000000001242 ]
    - # atom 2
      - [  0.49999999988935, -0.00000003996505 ]
      - [ -0.28867513510486,  0.00000002308581 ]
      - [  0.40824829023899, -0.00000003264315 ]
  - # 6
    frequency:   39.9202802139
    eigenvector:
    - # atom 1
      - [ -0.49947490146510,  0.00000000000000 ]
      - [ -0.30968060649194, -0.01567500753481 ]
      - [  0.39275206679950, -0.01108390412623 ]
    - # atom 2
      - [  0.49957637046968, -0.00083747823495 ]
      - [  0.30971723638520, -0.01099742150547 ]
      - [ -0.39285043919453, -0.00675065414602 ]

- q-position: [    0.0500000,    0.0000000,    0.0500000 ]
  distance:    0.0282823
  band:
  - # 1
    frequency:    4.9533233028
    eigenvector:
    - # atom 1
      - [  0.50000000000897, -0.00000000000000 ]
      - [ -0.28867513457437,  0.00000000000508 ]
      - [  0.40824829046761,  0.00000000000375 ]
    - # atom 2
      - [  0.50000000000813, -0.00000004442564 ]
      - [ -0.28867513457457,  0.00000002565258 ]
      - [  0.40824829046795, -0.00000003626883 ]
  - # 2
    frequency:    3.3666061589
    eigenvector:
    - # atom 1
      - [ -0.34011350453229,  0.00000000000000 ]
      - [  0.07800186431069, -0.32221126993745 ]
      - [  0.47170791756966, -0.22783777392375 ]
    - # atom 2
      - [ -0.35377444369846, -0.01200211517760 ]
      - [  0.06976444486764, -0.30889173463136 ]
      - [  0.48261434760626, -0.20371991117735 ]
  - # 3
    frequency:    3.3666061588
    eigenvector:
    - # atom 1
      - [ -0.36650075583528, -0.00000000000000 ]
      - [ -0.46621201184586,  0.29901276457325 ]
      - [  0.11920824604692,  0.21143395346904 ]
    - # atom 2
      - [ -0.35295259746243,  0.01113804971471 ]
      - [ -0.45806492174541,  0.32643837497175 ]
      - [  0.10837607122136,  0.21718551929585 ]
  - # 4
    frequency:   39.8993220392
    eigenvector:
    - # atom 1
      - [  0.02339738439507,  0.00000000000000 ]
      - [ -0.42638555972370, -0.37295662548235 ]
      - [ -0.33015594780058, -0.26372015945878 ]
    - # atom 2
      - [ -0.00705255123665, -0.01924313974184 ]
      - [  0.43526073492549,  0.36273514215289 ]
      - [  0.31641339378560,  0.28006041599055 ]
  - # 5
    frequency:   40.0592593490
    eigenvector:
    - # atom 1
      - [ -0.49999999990885,  0.00000000000000 ]
      - [  0.28867513500859,  0.00000000001232 ]
      - [ -0.40824829028265, -0.00000000001116 ]
    - # atom 2
      - [  0.49999999991005, -0.00000004440925 ]
      - [ -0.28867513500875,  0.00000002565048 ]
      - [  0.40824829028159, -0.00000003627068 ]
  - # 6
    frequency:   39.8993220395
    eigenvector:
    - # atom 1
      - [ -0.49945226247620,  0.00000000000000 ]
      - [ -0.30896621341512, -0.01747155872659 ]
      - [  0.39322949206119, -0.01235425765646 ]
    - # atom 2
      - [  0.49957897320165, -0.00090151024161 ]
      - [  0.30901306234110, -0.01220258206146 ]
      - [ -0.39335155317707, -0.00752440847608 ]

- q-position: [    0.0550000,    0.0000000,    0.0550000 ]
  distance:    0.0311105
  band:
  - # 1
    frequency:    5.4447510560
    eigenvector:
    - # atom 1
      - [  0.50000000000892, -0.00000000000000 ]
      - [ -0.28867513457447,  0.00000000000476 ]
      - [  0.40824829046760,  0.00000000000337 ]
    - # atom 2
      - [  0.50000000000808, -0.00000004886820 ]
      - [ -0.28867513457466,  0.00000002821701 ]
      - [  0.40824829046794, -0.00000003989646 ]
  - # 2
    frequency:    3.7012946378
    eigenvector:
    - # atom 1
      - [ -0.33940085459549,  0.00000000000000 ]
      - [  0.09212960784597, -0.31104831924083 ]
      - [  0.48082492646963, -0.21994437578911 ]
    - # atom 2
      - [ -0.35387135180439, -0.01388958759279 ]
      - [  0.08332823823137, -0.29676659529782 ]
      - [  0.49232408557662, -0.19283447077233 ]
  - # 3
    frequency:    3.7012946377
    eigenvector:
    - # atom 1
      - [ -0.36716080930971, -0.00000000000000 ]
      - [ -0.47828207824490,  0.28753086575712 ]
      - [  0.11148181735563,  0.20331502495603 ]
    - # atom 2
      - [ -0.35272835565411,  0.01283950295147 ]
      - [ -0.46953645187631,  0.31810089542006 ]
      - [  0.09998983547170,  0.20920618484203 ]
  - # 4
    frequency:   39.8761606456
    eigenvector:
    - # atom 1
      - [  0.02396164456711,  0.00000000000000 ]
      - [ -0.39961879751673, -0.40202531436730 ]
      - [ -0.31192006335725, -0.28427482643682 ]
    - # atom 2
      - [ -0.00454123672671, -0.01993422379344 ]
      - [  0.41018997824949,  0.39143311403563 ]
      - [  0.29560997203589,  0.30119934811029 ]
  - # 5
    frequency:   40.0692194500
    eigenvector:
    - # atom 1
      - [ -0.49999999992417,  0.00000000000000 ]
      - [  0.28867513493749,  0.00000000001121 ]
      - [ -0.40824829031415, -0.00000000001013 ]
    - # atom 2
      - [  0.49999999992538, -0.00000004885314 ]
      - [ -0.28867513493767,  0.00000002821518 ]
      - [  0.40824829031308, -0.00000003989816 ]
  - # 6
    frequency:   39.8761606458
    eigenvector:
    - # atom 1
      - [ -0.49942550962424,  0.00000000000000 ]
      - [ -0.30818027527396, -0.01928853754866 ]
      - [  0.39375246887525, -0.01363905570265 ]
    - # atom 2
      - [  0.49958091351566, -0.00095646133289 ]
      - [  0.30823923099227, -0.01339932555488 ]
      - [ -0.39390111100403, -0.00830333284859 ]

- q-position: [    0.0600000,    0.0000000,    0.0600000 ]
  distance:    0.0339387
  band:
  - # 1
    frequency:    5.9350672267
    eigenvector:
    - # atom 1
      - [  0.50000000000887, -0.00000000000000 ]
      - [ -0.28867513457458,  0.00000000000451 ]
      - [  0.40824829046758,  0.00000000000306 ]
    - # atom 2
      - [  0.50000000000803, -0.00000005331077 ]
      - [ -0.28867513457476,  0.00000003078151 ]
      - [  0.40824829046793, -0.00000004352404 ]
  - # 2
    frequency:    4.0354195063
    eigenvector:
    - # atom 1
      - [ -0.33841977916677,  0.00000000000000 ]
      - [  0.10519932197742, -0.30046200603316 ]
      - [  0.48886504285908, -0.21245872193313 ]