54   
1    

1    
  0.1000000000000000   0.0000000000000000   0.0000000000000000
  -4.6661799203   -0.4246860024   -0.3002980158
   0.3664540797    0.0980530976    0.0693339842
   0.3047120797   -0.0823506024   -0.0582307158
  -0.0009442163    0.0947303976   -0.0183514158
   0.0046663697   -0.0003200704    0.0015475342
   0.0121779797   -0.0974625024    0.0141075842
   0.0025040197    0.2698999976   -0.0826908158
   0.0080656097   -0.2927440024    0.0824956842
   0.0042560297   -0.0012275124    0.0077479642
  -0.0009442163    0.0142749976    0.0954297842
   0.0046663697    0.0013523576   -0.0008176298
   0.0121779797   -0.0191867024   -0.0965911158
   0.0109050797   -0.0022467524   -0.0015887058
   0.0054164597    0.0021762376    0.0015388142
  -0.0025361503   -0.0078752524   -0.0055686558
  -0.0218066203    0.0013901676   -0.0053818658
   0.0036144197   -0.0023257024    0.0031449042
   0.0047850297    0.0052470076   -0.0079357758
   0.0025040197    0.0120049976    0.2820279842
   0.0080656097   -0.0198036024   -0.3035000158
   0.0042560297    0.0068956976   -0.0037399858
  -0.0218066203   -0.0046106724    0.0031046042
   0.0036144197    0.0021898176   -0.0032410158
   0.0047850297   -0.0057329024    0.0075921642
   0.0108805797   -0.0049473224   -0.0034983058
  -0.0032133503   -0.0006037304   -0.0004269168
   0.0055393197   -0.0000174387   -0.0000123454
  -0.0032136503    0.0023351676    0.0016511942
  -0.0214765203   -0.0104756024   -0.0074074058
  -0.0193738203    0.0035946076    0.0025417542
  -0.0176341203   -0.0074323024   -0.0049165058
   0.7123210797    0.0362035976    0.0415396842
  -0.0167770203    0.0082283276    0.0128095842
  -0.0034224303   -0.0028362724   -0.0048668558
  -0.0116251203   -0.0035817824    0.0055875742
   0.0017386697   -0.0012969024    0.0033268542
  -0.0176341203   -0.0071127524   -0.0053684258
   0.7123210797    0.0512318976    0.0202864842
  -0.0167770203    0.0148197976    0.0034878542
   0.9396450797   -0.1388570024   -0.0981867158
   1.5509000797    0.5191009976    0.3670599842
   0.0351722797   -0.0011198224   -0.0007918498
   0.0014556297    0.0011656276    0.0042442142
   0.0340539797   -0.0015452024    0.0057796442
   0.0293270797   -0.0047413724   -0.0049580958
  -0.0034224303   -0.0055339224   -0.0010517958
  -0.0116251203    0.0040740976   -0.0052394858
   0.0017386697    0.0027043076   -0.0023316958
   0.0014556297    0.0043900376   -0.0003157938
   0.0340539797    0.0049340476   -0.0033833958
   0.0293270797   -0.0062549824   -0.0028175258
  -0.0129208203    0.0085651976    0.0060564942
   0.0221189797   -0.0025879924   -0.0018299958
  -0.0163425203   -0.0100458024   -0.0071034858
