  54   54
1 1
    46.661799203323838    -0.000000000006817    -0.000000000003616
    -0.000000000006817    46.661799203348600    -0.000000000013722
    -0.000000000003616    -0.000000000013722    46.661799203323561
1 2
    -3.339439466814590    -0.921133525300601    -0.651339762111447
     0.921133525292555     1.033329056523593     0.572923237282674
     0.651339762102552     0.572923237285483     0.628211150289868
1 3
    -3.339439466752813     0.921133525280262     0.651339762091934
    -0.921133525270734     1.033329056519193     0.572923237284094
    -0.651339762069280     0.572923237271436     0.628211150273954
1 4
    -0.059863074337111    -0.972330787739855     0.170496196865219
    -2.814597838318136    -2.246247335966006    -0.850538399122050
     0.821835958996332     0.277615161848629     0.628211150310762
1 5
    -0.043797613894449    -0.000000000012926    -0.000000000008403
    -0.000000000012607    -0.043797613887839    -0.000000000000412
    -0.000000000007308    -0.000000000004711    -0.102103162216552
1 6
    -0.059863074329849     0.972330787730215    -0.170496196874161
     2.814597838357628    -2.246247336017857    -0.850538399133121
    -0.821835959004842     0.277615161864737     0.628211150312208
1 7
    -0.059863074332314    -2.814597838319319     0.821835958988166
    -0.972330787762045    -2.246247336024155     0.277615161857648
     0.170496196874217    -0.850538399093883     0.628211150303021
1 8
    -0.059863074328721     2.814597838306422    -0.821835958990996
     0.972330787749497    -2.246247336012009     0.277615161859460
    -0.170496196876188    -0.850538399106626     0.628211150306184
1 9
    -0.043797613892209     0.000000000005521     0.000000000000407
     0.000000000001505    -0.043797613896299     0.000000000002146
     0.000000000005046     0.000000000002344    -0.102103162216122
1 10
    -0.059863074332912    -0.163364906631466    -0.973554323708650
    -0.163364906649376     0.128774471302327    -0.562081850888810
    -2.927573610044756    -1.690235411860692    -1.746810656963328
1 11
    -0.043797613907950    -0.000000000002117    -0.000000000001783
    -0.000000000005859    -0.095624767945667     0.018323666033703
     0.000000000002182     0.018323666033009    -0.050276008149868
1 12
    -0.059863074331890     0.163364906628115     0.973554323705338
     0.163364906623816     0.128774471303656    -0.562081850879719
     2.927573609981424    -1.690235411822971    -1.746810656914629
1 13
    -0.082667979453409     0.022441816009206     0.015868760282883
     0.022441816006311    -0.056754402389413    -0.009161833033046
     0.015868760282822    -0.009161833034678    -0.050276008157718
1 14
    -0.082667979434511    -0.022441816015703    -0.015868760285714
    -0.022441816017773    -0.056754402400290    -0.009161833023790
    -0.015868760284239    -0.009161833022811    -0.050276008167795
1 15
     0.026923731385788    -0.000000000000071    -0.000000000001983
    -0.000000000002597    -0.063755058062315    -0.064119586936948
    -0.000000000000947    -0.064119586931977    -0.018415663324122
1 16
     0.223093244112499     0.000000000002573    -0.000000000000483
    -0.000000000004689    -0.154181847144903     1.124163701744899
    -0.000000000003012     3.380470823644565    -1.746810657030678
1 17
    -0.041085360692992     0.039265067626721    -0.055529191160738
     0.039265067626198     0.004254034035709     0.032059793461362
    -0.055529191160061     0.032059793460588    -0.018415663344339
1 18
    -0.041085360711172    -0.039265067626512     0.055529191161646
    -0.039265067628757     0.004254034035995     0.032059793459019
     0.055529191162152     0.032059793456124    -0.018415663330330
1 19
    -0.059863074337710    -0.163364906655619    -2.927573610038186
    -0.163364906637536     0.128774471294750    -1.690235411886323
    -0.973554323708047    -0.562081850887079    -1.746810656960037
1 20
    -0.059863074316599     0.163364906631883     2.927573609974719
     0.163364906613509     0.128774471296687    -1.690235411835837
     0.973554323694738    -0.562081850884629    -1.746810656930862
1 21
    -0.043797613907647     0.000000000000786     0.000000000000022
    -0.000000000003423    -0.095624767935567     0.018323666033217
    -0.000000000000423     0.018323666031942    -0.050276008158416
1 22
     0.223093244100801    -0.000000000001358    -0.000000000003854
    -0.000000000003759    -0.154181847087166     3.380470823630271
    -0.000000000000672     1.124163701694269    -1.746810657018211
1 23
    -0.041085360708337    -0.039265067630593     0.055529191159636
    -0.039265067631252     0.004254034045641     0.032059793455340
     0.055529191160869     0.032059793455265    -0.018415663344320
1 24
    -0.041085360707610     0.039265067623828    -0.055529191165562
     0.039265067625568     0.004254034032225     0.032059793456228
    -0.055529191161285     0.032059793454635    -0.018415663323962
1 25
    -0.082667979433348     0.022441816011461     0.015868760278321
     0.022441816007802    -0.056754402408318    -0.009161833021224
     0.015868760280764    -0.009161833021326    -0.050276008162287
1 26
     0.026923731376648    -0.000000000003896    -0.000000000004621
    -0.000000000004249    -0.063755058054810    -0.064119586939088
    -0.000000000005035    -0.064119586938479    -0.018415663321845
1 27
    -0.082667979450293    -0.022441816009141    -0.015868760280913
    -0.022441816007921    -0.056754402409909    -0.009161833025823
    -0.015868760277498    -0.009161833029917    -0.050276008143824
1 28
     0.032136503323017    -0.000000000005321    -0.000000000003207
    -0.000000000005502     0.032136503350282    -0.000000000011561
    -0.000000000001702    -0.000000000010094     0.032136503323981
1 29
     0.196241389433628     0.063493370894495     0.044896593116220
     0.063493370892789     0.101847215677457     0.081733993094272
     0.044896593117438     0.081733993094112     0.044052554882554
1 30
     0.196241389436089    -0.063493370899969    -0.044896593120970
    -0.063493370899792     0.101847215678159     0.081733993098477
    -0.044896593120877     0.081733993093603     0.044052554880567
1 31
     0.180432631274022     0.072620561661840     0.093232010928693
     0.072620561664092     0.117655973841160    -0.001985406372423
     0.093232010931239    -0.001985406376949     0.044052554884144
1 32
    -7.031068550753686     0.000000000051447     0.000000000116295
     0.000000000048184    -7.031068550902511     0.000000000117660
     0.000000000055209     0.000000000020118   -15.301767788351643
1 33
     0.180432631268218    -0.072620561671208    -0.093232010941051
    -0.072620561676145     0.117655973842214    -0.001985406378405
    -0.093232010937448    -0.001985406377400     0.044052554886034
1 34
     0.070458886952350     0.009127190773428     0.048335417811885
     0.009127190772279     0.227629718168878    -0.079748586736862
     0.048335417816068    -0.079748586740383     0.044052554880715
1 35
     0.070458886950184    -0.009127190779480    -0.048335417816411
    -0.009127190783795     0.227629718162349    -0.079748586736389
    -0.048335417815929    -0.079748586739492     0.044052554890013
1 36
    -0.016754859657024     0.000000000002764     0.000000000002072
     0.000000000003255    -0.016754859651458    -0.000000000003235
     0.000000000007002    -0.000000000002761     0.226904729308205
1 37
     0.180432631260287     0.112106836762982     0.037389985166054
     0.112106836761468     0.050982806508970     0.021587117993665
     0.037389985164813     0.021587117993408     0.110725722224350
1 38
    -7.031068550838755    -0.000000000001251    -0.000000000003739
    -0.000000000003990   -14.382801206340083     2.599230007150272
     0.000000000000267     2.599230007148914    -7.950035132822810
1 39
     0.180432631263431    -0.112106836773327    -0.037389985175217
    -0.112106836774850     0.050982806517395     0.021587117990822
    -0.037389985174910     0.021587117988615     0.110725722214789
1 40
   -12.544868042559697     3.183393620819181     2.250999216405562
     3.183393620845147    -8.869001714871636    -1.299615003506067
     2.250999216320955    -1.299615003448176    -7.950035132583898
1 41
   -12.544868042326605    -3.183393620693199    -2.250999216319036
    -3.183393620723376    -8.869001714805073    -1.299615003447451
    -2.250999216279371    -1.299615003416458    -7.950035132725583
1 42
    -0.348153867268876    -0.000000000006371    -0.000000000001865
    -0.000000000003725    -0.307876138795604    -0.061715226059146
     0.000000000001806    -0.061715226058514    -0.264236883936132
1 43
    -0.013742105886805    -0.000000000002550    -0.000000000004043
    -0.000000000004635     0.245157543675709    -0.043174236020440
    -0.000000000002061    -0.043174236017908     0.110725722209805
1 44
    -0.317945570905400    -0.017440768020065    -0.053446953557020
    -0.017440768019802    -0.338084435140152     0.030857613028818
    -0.053446953555319     0.030857613028635    -0.264236883955212
1 45
    -0.317945570920010     0.017440768026772     0.053446953561849
     0.017440768023861    -0.338084435145025     0.030857613021104
     0.053446953563014     0.030857613018230    -0.264236883937561
1 46
     0.070458886949897     0.048613465867574    -0.007506607954073
     0.048613465868923     0.014324891737479    -0.004333942123906
    -0.007506607950537    -0.004333942123146     0.257357381307563
1 47
     0.070458886936687    -0.048613465880423     0.007506607943599
    -0.048613465882404     0.014324891729228    -0.004333942124776
     0.007506607944846    -0.004333942125895     0.257357381330245
1 48
    -0.016754859658299     0.000000000003080     0.000000000002230
     0.000000000003875     0.199831441667255    -0.076574821192041
     0.000000000000045    -0.076574821194137     0.010318427991590
1 49
    -0.013742105887883    -0.000000000002731    -0.000000000003969
    -0.000000000004988     0.098525884576845     0.008667884230598
     0.000000000000287     0.008667884231599     0.257357381313756
1 50
    -0.317945570901704    -0.056203860417499     0.001372337393637
    -0.056203860419896    -0.253046943040362     0.000792319365327
     0.001372337393687     0.000792319362767    -0.349274376058689
1 51
    -0.317945570922112     0.056203860405904    -0.001372337399957
     0.056203860405881    -0.253046943036131     0.000792319360223
    -0.001372337399840     0.000792319361880    -0.349274376039884
1 52
     0.145684866330879    -0.093784619532968    -0.066315740444336
    -0.093784619536290     0.037391715676428     0.038287410590148
    -0.066315740442490     0.038287410586261     0.010318427988143
1 53
    -0.220597629100693    -0.000000000010065    -0.000000000004379
    -0.000000000008574    -0.350394884848053    -0.001584638733839
    -0.000000000004524    -0.001584638732885    -0.349274376055775
1 54
     0.145684866317736     0.093784619525958     0.066315740433996
     0.093784619521150     0.037391715670432     0.038287410585009
     0.066315740432441     0.038287410586532     0.010318428010431
2 1
    -3.339439466814590     0.921133525292555     0.651339762102552
    -0.921133525300601     1.033329056523593     0.572923237285483
    -0.651339762111447     0.572923237282674     0.628211150289868
2 2
    46.661799203331725    -0.000000000001229    -0.000000000005279
    -0.000000000001229    46.661799203344685    -0.000000000007545
    -0.000000000005279    -0.000000000007545    46.661799203325259
2 3
    -3.339439466771490    -0.921133525289801    -0.651339762099961
     0.921133525340039     1.033329056532455     0.572923237299348
     0.651339762118072     0.572923237283880     0.628211150282410
2 4
    -0.059863074339883     0.972330787737750    -0.170496196875080
     2.814597838305502    -2.246247335969038    -0.850538399117372
    -0.821835959014767     0.277615161854606     0.628211150310864
2 5
    -0.059863074341583    -0.972330787752860     0.170496196856916
    -2.814597838367933    -2.246247336018626    -0.850538399123499
     0.821835959021618     0.277615161880087     0.628211150313466
2 6
    -0.043797613902625    -0.000000000000763     0.000000000000943
    -0.000000000003275    -0.043797613895413     0.000000000000625
    -0.000000000001177    -0.000000000005595    -0.102103162199621
2 7
    -0.043797613891018    -0.000000000012776    -0.000000000003800
    -0.000000000009726    -0.043797613895483     0.000000000001837
    -0.000000000011574    -0.000000000002527    -0.102103162213172
2 8
    -0.059863074314914    -2.814597838255231     0.821835958987596
    -0.972330787741618    -2.246247335978353     0.277615161853528
     0.170496196885104    -0.850538399065170     0.628211150295390
2 9
    -0.059863074322634     2.814597838309607    -0.821835958993395
     0.972330787752201    -2.246247336019056     0.277615161864894
    -0.170496196880443    -0.850538399097894     0.628211150305895
2 10
    -0.059863074328960     0.163364906629387     0.973554323703881
     0.163364906644485     0.128774471300370    -0.562081850884318
     2.927573610035612    -1.690235411859009    -1.746810656962480
2 11
    -0.059863074330272    -0.163364906627204    -0.973554323707803
    -0.163364906624323     0.128774471302900    -0.562081850876255
    -2.927573609985788    -1.690235411821221    -1.746810656912998
2 12
    -0.043797613901665     0.000000000003027    -0.000000000000682
     0.000000000005352    -0.095624767948824     0.018323666039223
    -0.000000000006545     0.018323666034626    -0.050276008149804
2 13
     0.026923731379285     0.000000000003690     0.000000000003418
     0.000000000002106    -0.063755058040701    -0.064119586938650
    -0.000000000001568    -0.064119586942865    -0.018415663335603
2 14
    -0.082667979430022     0.022441816001499     0.015868760277395
     0.022441816001242    -0.056754402401830    -0.009161833019003
     0.015868760273733    -0.009161833020956    -0.050276008166827
2 15
    -0.082667979438610    -0.022441816005622    -0.015868760281300
    -0.022441816007289    -0.056754402414978    -0.009161833021150
    -0.015868760284702    -0.009161833021337    -0.050276008144218
2 16
    -0.041085360692183    -0.039265067629365     0.055529191159371
    -0.039265067628744     0.004254034031368     0.032059793466387
     0.055529191155388     0.032059793465569    -0.018415663340583
2 17
     0.223093244119199    -0.000000000012653     0.000000000003463
     0.000000000002459    -0.154181847131865     1.124163701743361
    -0.000000000002399     3.380470823642411    -1.746810657028683
2 18
    -0.041085360706930     0.039265067623832    -0.055529191161540
     0.039265067624691     0.004254034034193     0.032059793463304
    -0.055529191164171     0.032059793457705    -0.018415663329346
2 19
    -0.043797613897337    -0.000000000008577    -0.000000000005711
    -0.000000000011299    -0.095624767946208     0.018323666036586
    -0.000000000008761     0.018323666035169    -0.050276008157584
2 20
    -0.059863074326608    -0.163364906652543    -2.927573610037546
    -0.163364906628649     0.128774471292076    -1.690235411879478
    -0.973554323713547    -0.562081850884822    -1.746810656964050
2 21
    -0.059863074335348     0.163364906650162     2.927573610055862
     0.163364906626349     0.128774471295860    -1.690235411839716
     0.973554323699835    -0.562081850884951    -1.746810656959283
2 22
    -0.041085360706618     0.039265067624759    -0.055529191164436
     0.039265067623556     0.004254034044530     0.032059793451147
    -0.055529191166171     0.032059793448199    -0.018415663339646
2 23
     0.223093244107998    -0.000000000006838     0.000000000004538
    -0.000000000003702    -0.154181847092650     3.380470823642348
    -0.000000000005228     1.124163701703344    -1.746810657027484
2 24
    -0.041085360703658    -0.039265067621783     0.055529191160445
    -0.039265067621118     0.004254034030269     0.032059793460721
     0.055529191158241     0.032059793456318    -0.018415663323115
2 25
    -0.082667979428917    -0.022441816001337    -0.015868760281646
    -0.022441816004479    -0.056754402409904    -0.009161833016470
    -0.015868760283790    -0.009161833019490    -0.050276008161332
2 26
    -0.082667979448122     0.022441816006177     0.015868760277846
     0.022441816007291    -0.056754402407755    -0.009161833023392
     0.015868760272012    -0.009161833027787    -0.050276008141944
2 27
     0.026923731382380     0.000000000000932     0.000000000001554
     0.000000000003619    -0.063755058060878    -0.064119586932535
    -0.000000000000450    -0.064119586937242    -0.018415663322031
2 28
     0.196241389431430    -0.063493370894442    -0.044896593118264
    -0.063493370892779     0.101847215685180     0.081733993093958
    -0.044896593121651     0.081733993092653     0.044052554883595
2 29
     0.032136503336172     0.000000000007405     0.000000000002599
     0.000000000006448     0.032136503339043    -0.000000000002906
    -0.000000000000972    -0.000000000004165     0.032136503325742
2 30
     0.196241389441356     0.063493370882647     0.044896593112636
     0.063493370885912     0.101847215677413     0.081733993103825
     0.044896593107293     0.081733993095785     0.044052554881767
2 31
     0.180432631275627    -0.072620561678527    -0.093232010941049
    -0.072620561677167     0.117655973838099    -0.001985406369496
    -0.093232010943980    -0.001985406376046     0.044052554883884
2 32
     0.180432631272545     0.072620561679784     0.093232010945167
     0.072620561677734     0.117655973833716    -0.001985406367568
     0.093232010936799    -0.001985406367419     0.044052554885848
2 33
    -7.031068550830328     0.000000000003087    -0.000000000002624
    -0.000000000000677    -7.031068550819894    -0.000000000072713
    -0.000000000003914    -0.000000000074517   -15.301767788350453
2 34
    -0.016754859651364    -0.000000000007441    -0.000000000004750
    -0.000000000005876    -0.016754859654625     0.000000000002990
    -0.000000000007549     0.000000000001322     0.226904729305839
2 35
     0.070458886953379     0.009127190785141     0.048335417824482
     0.009127190781168     0.227629718160208    -0.079748586732485
     0.048335417820999    -0.079748586738015     0.044052554890204
2 36
     0.070458886954759    -0.009127190777242    -0.048335417814134
    -0.009127190774709     0.227629718167676    -0.079748586734186
    -0.048335417816996    -0.079748586741033     0.044052554884607
2 37
     0.180432631263922    -0.112106836770446    -0.037389985169647
    -0.112106836772807     0.050982806506589     0.021587117998038
    -0.037389985171940     0.021587117995373     0.110725722225277
2 38
     0.180432631267695     0.112106836768407     0.037389985166429
     0.112106836766841     0.050982806516815     0.021587117993531
     0.037389985165543     0.021587117989364     0.110725722216667
2 39
    -7.031068550835115    -0.000000000003669    -0.000000000005048
    -0.000000000004019   -14.382801206343416     2.599230007156548
    -0.000000000009634     2.599230007151532    -7.950035132822993
2 40
    -0.348153867263375     0.000000000000561    -0.000000000004578
    -0.000000000000310    -0.307876138798466    -0.061715226052873
    -0.000000000007635    -0.061715226056795    -0.264236883937607
2 41
   -12.544868042394793     3.183393620830647     2.250999216456551
     3.183393620886139    -8.869001714847338    -1.299615003471461
     2.250999216462717    -1.299615003459792    -7.950035132756566
2 42
   -12.544868042557294    -3.183393620824992    -2.250999216412005
    -3.183393620849184    -8.869001714872685    -1.299615003503355
    -2.250999216326784    -1.299615003446527    -7.950035132580728
2 43
    -0.317945570911109     0.017440768027019     0.053446953561764
     0.017440768026108    -0.338084435125548     0.030857613018764
     0.053446953558854     0.030857613018487    -0.264236883961790
2 44
    -0.013742105877016     0.000000000006192     0.000000000005976
     0.000000000008552     0.245157543664466    -0.043174236007070
     0.000000000003231    -0.043174236011659     0.110725722218524
2 45
    -0.317945570916058    -0.017440768025745    -0.053446953564923
    -0.017440768027428    -0.338084435146982     0.030857613025596
    -0.053446953566386     0.030857613019914    -0.264236883936714
2 46
    -0.016754859653982    -0.000000000004749    -0.000000000005997
    -0.000000000005684     0.199831441665266    -0.076574821187852
    -0.000000000005493    -0.076574821194574     0.010318427991209
2 47
     0.070458886940639     0.048613465874671    -0.007506607950858
     0.048613465875889     0.014324891727271    -0.004333942120284
    -0.007506607954651    -0.004333942124212     0.257357381331093
2 48
     0.070458886953483    -0.048613465869244     0.007506607950305
    -0.048613465870731     0.014324891735556    -0.004333942119110
     0.007506607945089    -0.004333942119343     0.257357381309639
2 49
    -0.317945570913151     0.056203860407269    -0.001372337401672
     0.056203860405901    -0.253046943021341     0.000792319363440
    -0.001372337403121     0.000792319360836    -0.349274376059285
2 50
    -0.013742105872668    -0.000000000005216    -0.000000000001844
    -0.000000000005474     0.098525884559657     0.008667884237680
    -0.000000000008974     0.008667884234901     0.257357381316034
2 51
    -0.317945570918377    -0.056203860407796     0.001372337402965
    -0.056203860408068    -0.253046943038301     0.000792319364721
     0.001372337399128     0.000792319363704    -0.349274376039040
2 52
     0.145684866337145     0.093784619519768     0.066315740429611
     0.093784619521191     0.037391715676014     0.038287410595731
     0.066315740426255     0.038287410589035     0.010318427989761
2 53
     0.145684866327719    -0.093784619529664    -0.066315740437345
    -0.093784619528687     0.037391715669232     0.038287410593806
    -0.066315740442133     0.038287410591273     0.010318427998505
2 54
    -0.220597629107851     0.000000000001783    -0.000000000001346
    -0.000000000003187    -0.350394884854344    -0.001584638736678
    -0.000000000005905    -0.001584638736260    -0.349274376036363
3 1
    -3.339439466752813    -0.921133525270734    -0.651339762069280
     0.921133525280262     1.033329056519193     0.572923237271436
     0.651339762091934     0.572923237284094     0.628211150273954
3 2
    -3.339439466771490     0.921133525340039     0.651339762118072
    -0.921133525289801     1.033329056532455     0.572923237283880
    -0.651339762099961     0.572923237299348     0.628211150282410
3 3
    46.661799202240495    -0.000000000749294    -0.000000000528978
    -0.000000000749294    46.661799204590700    -0.000000000839134
    -0.000000000528978    -0.000000000839134    46.661799203168655
3 4
    -0.043797613895686     0.000000000008713     0.000000000002675
     0.000000000005132    -0.043797613888532    -0.000000000006016
     0.000000000000216    -0.000000000006377    -0.102103162214567
3 5
    -0.059863074293726     0.972330787719961    -0.170496196879682
     2.814597838348402    -2.246247336052916    -0.850538399119814
    -0.821835959028650     0.277615161896753     0.628211150307552
3 6
    -0.059863074320319    -0.972330787747020     0.170496196886753
    -2.814597838301280    -2.246247336028632    -0.850538399088622
     0.821835959000488     0.277615161864950     0.628211150298363
3 7
    -0.059863074319560     2.814597838302682    -0.821835959002229
     0.972330787753652    -2.246247336023007     0.277615161863228
    -0.170496196878345    -0.850538399082898     0.628211150299596
3 8
    -0.043797613879241     0.000000000017200     0.000000000014893
     0.000000000015301    -0.043797613899295     0.000000000007569
     0.000000000013785     0.000000000002629    -0.102103162219971
3 9
    -0.059863074282977    -2.814597838288933     0.821835959016582
    -0.972330787704440    -2.246247336013680     0.277615161881342
     0.170496196895913    -0.850538399071919     0.628211150293962
3 10
    -0.043797613888196     0.000000000010547     0.000000000007305
     0.000000000009317    -0.095624767938737     0.018323666036510
     0.000000000004388     0.018323666033030    -0.050276008166004
3 11
    -0.059863074332652     0.163364906636543     0.973554323715498
     0.163364906628951     0.128774471303420    -0.562081850872299
     2.927573609983286    -1.690235411848015    -1.746810656920574
3 12
    -0.059863074316357    -0.163364906612286    -0.973554323698463
    -0.163364906602898     0.128774471304874    -0.562081850869394
    -2.927573609921887    -1.690235411799948    -1.746810656887322
3 13
    -0.082667979437513    -0.022441815993624    -0.015868760268169
    -0.022441815995431    -0.056754402397494    -0.009161833026417
    -0.015868760271195    -0.009161833027695    -0.050276008162544
3 14
     0.026923731407188     0.000000000003634     0.000000000004756
     0.000000000004701    -0.063755058056778    -0.064119586928120
     0.000000000004587    -0.064119586926879    -0.018415663350501
3 15
    -0.082667979427236     0.022441816020829     0.015868760289445
     0.022441816018527    -0.056754402421424    -0.009161833019241
     0.015868760286885    -0.009161833016387    -0.050276008150140
3 16
    -0.041085360680703     0.039265067629073    -0.055529191155274
     0.039265067630220     0.004254034025945     0.032059793466634
    -0.055529191158934     0.032059793471640    -0.018415663346908
3 17
    -0.041085360677880    -0.039265067608544     0.055529191173126
    -0.039265067610681     0.004254034028908     0.032059793466601
     0.055529191171209     0.032059793467593    -0.018415663350714
3 18
     0.223093244113155     0.000000000003518     0.000000000012411
     0.000000000004253    -0.154181847149568     1.124163701744766
    -0.000000000010145     3.380470823645157    -1.746810657017762
3 19
    -0.059863074326783     0.163364906619783     2.927573609980268
     0.163364906627591     0.128774471305420    -1.690235411831687
     0.973554323707259    -0.562081850878758    -1.746810656929064
3 20
    -0.043797613879038     0.000000000002741     0.000000000002173
     0.000000000004283    -0.095624767953969     0.018323666041273
    -0.000000000000419     0.018323666041163    -0.050276008168536
3 21
    -0.059863074301440    -0.163364906606684    -2.927573610031974
    -0.163364906606296     0.128774471308375    -1.690235411839010
    -0.973554323670367    -0.562081850863442    -1.746810656938956
3 22
    -0.041085360695459    -0.039265067613654     0.055529191169091
    -0.039265067614665     0.004254034039094     0.032059793452780
     0.055529191167918     0.032059793453077    -0.018415663346207
3 23
    -0.041085360692969     0.039265067631163    -0.055529191154940
     0.039265067628852     0.004254034037620     0.032059793460929
    -0.055529191155936     0.032059793462557    -0.018415663349151
3 24
     0.223093244115705     0.000000000010397     0.000000000005566
    -0.000000000005054    -0.154181847151663     3.380470823717229
     0.000000000008150     1.124163701719921    -1.746810657003755
3 25
     0.026923731408322     0.000000000016278     0.000000000007959
     0.000000000012705    -0.063755058064777    -0.064119586925614
     0.000000000007535    -0.064119586925463    -0.018415663344982
3 26
    -0.082667979436146    -0.022441815998812    -0.015868760274825
    -0.022441815998434    -0.056754402413707    -0.009161833021187
    -0.015868760277906    -0.009161833022674    -0.050276008147714
3 27
    -0.082667979434951     0.022441816019632     0.015868760291567
     0.022441816020997    -0.056754402418209    -0.009161833019402
     0.015868760290745    -0.009161833023396    -0.050276008148942
3 28
     0.196241389438910     0.063493370896837     0.044896593122006
     0.063493370895977     0.101847215679759     0.081733993094068
     0.044896593119896     0.081733993097376     0.044052554876302
3 29
     0.196241389447923    -0.063493370875627    -0.044896593106099
    -0.063493370877251     0.101847215672348     0.081733993100479
    -0.044896593107197     0.081733993102123     0.044052554877243
3 30
     0.032136503348903     0.000000000001378     0.000000000004308
     0.000000000002440     0.032136503334611     0.000000000002508
     0.000000000001228    -0.000000000000240     0.032136503317713
3 31
    -7.031068550645255     0.000000000001930    -0.000000000045123
     0.000000000003063    -7.031068551018128     0.000000000134854
     0.000000000049481     0.000000000131808   -15.301767788311388
3 32
     0.180432631284500    -0.072620561654529    -0.093232010917963
    -0.072620561656660     0.117655973831184    -0.001985406365523
    -0.093232010923607    -0.001985406361341     0.044052554881674
3 33
     0.180432631279498     0.072620561684029     0.093232010940912
     0.072620561679068     0.117655973835770    -0.001985406373853
     0.093232010941936    -0.001985406372154     0.044052554880255
3 34
     0.070458886966009    -0.009127190776850    -0.048335417817463
    -0.009127190777740     0.227629718164970    -0.079748586733526
    -0.048335417815838    -0.079748586735215     0.044052554876182
3 35
    -0.016754859642843     0.000000000015185     0.000000000011736
     0.000000000010461    -0.016754859666491     0.000000000005195
     0.000000000010632     0.000000000004832     0.226904729308961
3 36
     0.070458886963492     0.009127190794296     0.048335417833240
     0.009127190794667     0.227629718165556    -0.079748586735286
     0.048335417833524    -0.079748586738413     0.044052554878366
3 37
    -7.031068550767600     0.000000000034743     0.000000000063519
     0.000000000094937   -14.382801206824404     2.599230007398130
     0.000000000039143     2.599230007346977    -7.950035132700235
3 38
     0.180432631277369    -0.112106836758994    -0.037389985162040
    -0.112106836757893     0.050982806512632     0.021587117995184