ITEM: TIMESTEP
0
ITEM: NUMBER OF ATOMS
54
ITEM: BOX BOUNDS xy xz yz pp pp pp
0.0000000000000000e+00 1.5001052573999999e+01 3.7502631434999998e+00
0.0000000000000000e+00 8.6608617416999998e+00 3.7502631434999998e+00
0.0000000000000000e+00 6.1241540684999993e+00 2.1652154355000000e+00
ITEM: ATOMS id type x y z fx fy fz
1 2 5.10034 2.88695 2.04138 -4.73618 -0.45188 -0.319527
2 2 7.50051 2.88695 2.04138 0.381618 0.0847985 0.0599616
3 2 10.0007 2.88695 2.04138 0.311885 -0.078159 -0.0552667
4 2 6.25043 5.05216 2.04138 0.0118816 0.10095 -0.0286757
5 2 8.7506 5.05216 2.04138 0.00477074 -0.000463366 0.000695889
6 2 11.2508 5.05216 2.04138 0.0211195 -0.106035 0.0194214
7 2 7.50051 7.21738 2.04138 0.0213985 0.265432 -0.0891229
8 2 10.0007 7.21738 2.04138 0.00932585 -0.28081 0.077986
9 2 12.5009 7.21738 2.04138 0.00425962 0.00161134 0.00297512
10 2 6.25043 3.60869 4.08276 0.0118816 0.00661418 0.104735
11 2 8.7506 3.60869 4.08276 0.00477074 0.000501635 -0.000668829
12 2 11.2508 3.60869 4.08276 0.0211195 -0.0170344 -0.106445
13 2 7.50051 5.7739 4.08276 0.00986745 -0.00409754 -0.0028974
14 2 10.0007 5.7739 4.08276 0.0111855 0.00281583 0.00199109
15 2 12.5009 5.7739 4.08276 0.00242854 0.00135106 0.000955344
16 2 8.7506 7.93912 4.08276 -0.00435424 0.00192504 -0.000279309
17 2 11.2508 7.93912 4.08276 0.00837202 -0.00356804 0.00494107
18 2 13.751 7.93912 4.08276 0.00721709 0.00298154 -0.00404585
19 2 7.50051 4.33042 6.12415 0.0213985 0.00445138 0.279959
20 2 10.0007 4.33042 6.12415 0.00932585 -0.0200773 -0.290745
21 2 12.5009 4.33042 6.12415 0.00425962 0.00334208 0.00052748
22 2 8.7506 6.49564 6.12415 -0.00435424 0.000378344 0.00190804
23 2 11.2508 6.49564 6.12415 0.00837202 0.00346914 -0.00501101
24 2 13.751 6.49564 6.12415 0.00721709 -0.00282061 0.00415964
25 2 10.0007 8.66085 6.12415 0.0106752 -0.00420655 -0.00297448
26 2 12.5009 8.66085 6.12415 0.00246478 -0.00376649 -0.00266331
27 2 15.001 8.66085 6.12415 0.0101536 0.00311724 0.00220422
28 2 1.25008 0.721732 0.510341 -0.0068113 -0.000603936 -0.000427047
29 2 3.75025 0.721732 0.510341 -0.0284293 -0.00912817 -0.00645459
30 2 6.25043 0.721732 0.510341 -0.0235559 0.00481886 0.00340745
31 2 2.50016 2.88695 0.510341 -0.0222756 -0.0099773 0.00159918
32 2 5.00034 2.88695 0.510341 0.717505 0.0249446 0.039739
33 2 7.50051 2.88695 0.510341 -0.0180034 0.00612441 -0.00171429
34 2 3.75025 5.05216 0.510341 -0.0115438 -0.000269094 0.00489709
35 2 6.25043 5.05216 0.510341 -0.00896962 0.00457994 -0.0049908
36 2 8.7506 5.05216 0.510341 -0.000113362 0.00267026 -0.00224315
37 2 2.50016 1.44347 2.55173 -0.0222756 -0.00181805 -0.00993975
38 2 5.00034 1.44347 2.55173 0.717505 0.0457812 0.0102716
39 2 7.50051 1.44347 2.55173 -0.0180034 0.000425218 0.00634558
40 2 3.75025 3.60869 2.55173 0.930728 -0.121456 -0.0858821
41 2 6.25043 3.60869 2.55173 1.55013 0.538681 0.380905
42 2 8.7506 3.60869 2.55173 0.0607951 -0.000689339 -0.000487436
43 2 5.00034 5.7739 2.55173 -0.0169335 0.00140905 0.00185783
44 2 7.50051 5.7739 2.55173 0.0277831 0.0207382 0.0197157
45 2 10.0007 5.7739 2.55173 0.026118 -0.0218616 -0.0175191
46 2 3.75025 2.16521 4.59311 -0.0115438 0.00452732 -0.00188607
47 2 6.25043 2.16521 4.59311 -0.00896962 -0.00317873 0.00598161
48 2 8.7506 2.16521 4.59311 -0.000113362 -0.00122478 0.00326526
49 2 5.00034 4.33042 4.59311 -0.0169335 0.00222126 0.000709193
50 2 7.50051 4.33042 4.59311 0.0277831 0.0255009 0.0129803
51 2 10.0007 4.33042 4.59311 0.026118 -0.0238043 -0.0147716
52 2 6.25043 6.49564 4.59311 -0.0125088 0.00886797 0.0062706
53 2 8.7506 6.49564 4.59311 -0.0154253 -0.00162442 -0.00114864
54 2 11.2508 6.49564 4.59311 -0.0141368 -0.00647489 -0.00457844
