ITEM: TIMESTEP
0
ITEM: NUMBER OF ATOMS
54
ITEM: BOX BOUNDS xy xz yz pp pp pp
0.0000000000000000e+00 1.5001052573999999e+01 3.7502631434999998e+00
0.0000000000000000e+00 8.6608617416999998e+00 3.7502631434999998e+00
0.0000000000000000e+00 6.1241540684999993e+00 2.1652154355000000e+00
ITEM: ATOMS id type x y z fx fy fz
1 1 5.10034 2.88695 2.04138 -4.6764 -0.426919 -0.301485
2 1 7.50051 2.88695 2.04138 0.3811 0.0890394 0.0630202
3 1 10.0007 2.88695 2.04138 0.303649 -0.0836584 -0.0590616
4 1 6.25043 5.05216 2.04138 0.0259219 0.0968274 -0.0203454
5 1 8.7506 5.05216 2.04138 -0.0411645 0.000965849 0.00193368
6 1 11.2508 5.05216 2.04138 0.0303905 -0.0915981 0.0132613
7 1 7.50051 7.21738 2.04138 0.0284605 0.257496 -0.0788901
8 1 10.0007 7.21738 2.04138 0.0273454 -0.274551 0.0754614
9 1 12.5009 7.21738 2.04138 -0.0421405 0.00266652 0.000506976
10 1 6.25043 3.60869 4.08276 0.0258398 0.0131288 0.0984288
11 1 8.7506 3.60869 4.08276 -0.0412476 0.00225851 0.00045443
12 1 11.2508 3.60869 4.08276 0.0306715 -0.0185437 -0.0906576
13 1 7.50051 5.7739 4.08276 0.00289122 -0.0244809 -0.0172748
14 1 10.0007 5.7739 4.08276 0.00243799 0.0262931 0.0184092
15 1 12.5009 5.7739 4.08276 0.00575395 0.000312394 0.000138459
16 1 8.7506 7.93912 4.08276 0.000651048 0.00264345 -0.00209668
17 1 11.2508 7.93912 4.08276 0.0107549 -0.0024729 0.00327558
18 1 13.751 7.93912 4.08276 0.00664105 0.000425682 -0.00195367
19 1 7.50051 4.33042 6.12415 0.0284426 0.0112173 0.268876
20 1 10.0007 4.33042 6.12415 0.027306 -0.0206255 -0.284223
21 1 12.5009 4.33042 6.12415 -0.041948 0.00116713 0.00195761
22 1 8.7506 6.49564 6.12415 0.000826959 -0.00142139 0.00263455
23 1 11.2508 6.49564 6.12415 0.0109725 0.00204167 -0.00358957
24 1 13.751 6.49564 6.12415 0.0066556 -0.00181125 0.000852906
25 1 10.0007 8.66085 6.12415 0.00323221 -0.0253255 -0.0183252
26 1 12.5009 8.66085 6.12415 0.00511021 -0.00231852 -0.0018737
27 1 15.001 8.66085 6.12415 0.00302166 0.0255012 0.0177511
28 1 1.25008 0.721732 0.510341 -0.00878746 -0.00191852 -0.00122091
29 1 3.75025 0.721732 0.510341 -0.0238021 -0.0135882 -0.00938497
30 1 6.25043 0.721732 0.510341 -0.0203641 0.0132338 0.00952433
31 1 2.50016 2.88695 0.510341 -0.0243457 -0.0140782 -0.01243
32 1 5.00034 2.88695 0.510341 0.721069 0.0204069 0.0296672
33 1 7.50051 2.88695 0.510341 -0.0197896 0.0120168 0.00681343
34 1 3.75025 5.05216 0.510341 0.00154153 0.000452699 -0.000820574
35 1 6.25043 5.05216 0.510341 7.96812e-05 -0.000527369 0.00214813
36 1 8.7506 5.05216 0.510341 -0.0027673 -0.00130096 0.00103996
37 1 2.50016 1.44347 2.55173 -0.0240162 -0.0166993 -0.00929528
38 1 5.00034 1.44347 2.55173 0.721261 0.0345636 0.00920903
39 1 7.50051 1.44347 2.55173 -0.0195462 0.0104349 0.00891985
40 1 3.75025 3.60869 2.55173 0.941438 -0.121422 -0.0860188
41 1 6.25043 3.60869 2.55173 1.54913 0.523053 0.36952
42 1 8.7506 3.60869 2.55173 -0.00970437 -0.0008809 -0.000670649
43 1 5.00034 5.7739 2.55173 0.00360251 -0.00359131 -0.000727888
44 1 7.50051 5.7739 2.55173 0.0297665 -0.0204531 0.0270167
45 1 10.0007 5.7739 2.55173 0.0248253 0.0200549 -0.0236387
46 1 3.75025 2.16521 4.59311 0.00162776 -0.000722979 0.0009849
47 1 6.25043 2.16521 4.59311 0.000238554 0.00164712 -0.00103233
48 1 8.7506 2.16521 4.59311 -0.00264673 0.000618132 -0.00144681
49 1 5.00034 4.33042 4.59311 0.00329372 -0.00130263 -0.00287271
50 1 7.50051 4.33042 4.59311 0.029732 0.0188747 -0.0283547
51 1 10.0007 4.33042 4.59311 0.0246368 -0.0154085 0.0269927
52 1 6.25043 6.49564 4.59311 -0.0111741 0.004917 0.00345918
53 1 8.7506 6.49564 4.59311 -0.00145767 -0.00222073 -0.00144536
54 1 11.2508 6.49564 4.59311 -0.00901825 -0.00441608 -0.0031215
