nqpoint: 404    
npath: 4      
segment_nqpoint:
- 101
- 101
- 101
- 101
labels:
- [ 'Gamma', 'X' ]
- [ 'X', 'K' ]
- [ 'K', 'Gamma' ]
- [ 'Gamma', 'L' ]
reciprocal_lattice:
- [   0.39997193,  -0.23092390,  -0.16328786 ] # a*
- [   0.00000000,   0.46184781,  -0.16328786 ] # b*
- [   0.00000000,   0.00000000,   0.48986357 ] # c*
natom: 2      
lattice:
- [     2.500175429000000,     0.000000000000000,     0.000000000000000 ] # a
- [     1.250087714500000,     2.165215435399999,     0.000000000000000 ] # b
- [     1.250087714500000,     0.721738478500000,     2.041384689500000 ] # c
points:
- symbol: C # 1
  coordinates: [  0.999997454617902,  0.999997454587760,  0.999997454570897 ]
  mass: 12.010700
- symbol: C # 2
  coordinates: [  0.249997596000766,  0.249997596026479,  0.249997596006757 ]
  mass: 12.010700

phonon:
- q-position: [    0.0000000,    0.0000000,    0.0000000 ]
  distance:    0.0000000
  band:
  - # 1
    frequency:   -0.0000004759
    eigenvector:
    - # atom 1
      - [ -0.01925583250265,  0.00000000000000 ]
      - [ -0.64743729696591,  0.00000000000000 ]
      - [  0.28364442425710,  0.00000000000000 ]
    - # atom 2
      - [ -0.01925583250158,  0.00000000000000 ]
      - [ -0.64743729696628,  0.00000000000000 ]
      - [  0.28364442425620,  0.00000000000000 ]
  - # 2
    frequency:    0.0000003808
    eigenvector:
    - # atom 1
      - [  0.00536423225417,  0.00000000000000 ]
      - [  0.28360763297820,  0.00000000000000 ]
      - [  0.64771748125816,  0.00000000000000 ]
    - # atom 2
      - [  0.00536423225533,  0.00000000000000 ]
      - [  0.28360763297972,  0.00000000000000 ]
      - [  0.64771748125966,  0.00000000000000 ]
  - # 3
    frequency:    0.0000008066
    eigenvector:
    - # atom 1
      - [ -0.70682419166936,  0.00000000000000 ]
      - [  0.01979032625518,  0.00000000000000 ]
      - [ -0.00281159380492,  0.00000000000000 ]
    - # atom 2
      - [ -0.70682419166642,  0.00000000000000 ]
      - [  0.01979032625620,  0.00000000000000 ]
      - [ -0.00281159380562,  0.00000000000000 ]
  - # 4
    frequency:   39.2808343797
    eigenvector:
    - # atom 1
      - [ -0.26307206911105,  0.00000000000000 ]
      - [ -0.37451993405546,  0.00000000000000 ]
      - [ -0.53900640575975,  0.00000000000000 ]
    - # atom 2
      - [  0.26307206911211,  0.00000000000000 ]
      - [  0.37451993405404,  0.00000000000000 ]
      - [  0.53900640575777,  0.00000000000000 ]
  - # 5
    frequency:   39.2808343799
    eigenvector:
    - # atom 1
      - [  0.57437734150069,  0.00000000000000 ]
      - [ -0.41237395693031,  0.00000000000000 ]
      - [  0.00619590312857,  0.00000000000000 ]
    - # atom 2
      - [ -0.57437734150251,  0.00000000000000 ]
      - [  0.41237395692940,  0.00000000000000 ]
      - [ -0.00619590312808,  0.00000000000000 ]
  - # 6
    frequency:   39.2808343800
    eigenvector:
    - # atom 1
      - [  0.31762203327562,  0.00000000000000 ]
      - [  0.43552558896284,  0.00000000000000 ]
      - [ -0.45763927424894,  0.00000000000000 ]
    - # atom 2
      - [ -0.31762203327804,  0.00000000000000 ]
      - [ -0.43552558896334,  0.00000000000000 ]
      - [  0.45763927424971,  0.00000000000000 ]

- q-position: [    0.0050000,    0.0000000,    0.0050000 ]
  distance:    0.0028282
  band:
  - # 1
    frequency:    0.3454848994
    eigenvector:
    - # atom 1
      - [ -0.35710331184562, -0.00000000000000 ]
      - [ -0.23938737984166,  0.40274038444441 ]
      - [  0.26808801007017,  0.28478045690649 ]
    - # atom 2
      - [ -0.35523549202771,  0.00015362080925 ]
      - [ -0.23830851629857,  0.40502553361983 ]
      - [  0.26656327905658,  0.28620815508713 ]
  - # 2
    frequency:    0.3454848995
    eigenvector:
    - # atom 1
      - [ -0.34996746228815,  0.00000000000000 ]
      - [ -0.16816289362985, -0.41095227581143 ]
      - [  0.30971173224930, -0.29058714090341 ]
    - # atom 2
      - [ -0.35186317940798, -0.00015674679633 ]
      - [ -0.16925787338139, -0.40887871936987 ]
      - [  0.31125923446371, -0.28892894024836 ]
  - # 3
    frequency:    0.4986238335
    eigenvector:
    - # atom 1
      - [ -0.50000000001057,  0.00000000000000 ]
      - [  0.28867513457323, -0.00000000002368 ]
      - [ -0.40824829046642, -0.00000000006942 ]
    - # atom 2
      - [ -0.50000000000974,  0.00000000444257 ]
      - [  0.28867513457362, -0.00000000258842 ]
      - [ -0.40824829046668,  0.00000000355784 ]
  - # 4
    frequency:   39.2805184922
    eigenvector:
    - # atom 1
      - [  0.00202932840165,  0.00000000000000 ]
      - [ -0.36631954718309, -0.44528419164140 ]
      - [ -0.26151251936241, -0.31486356103936 ]
    - # atom 2
      - [  0.00003019845028, -0.00169969502124 ]
      - [  0.36750337838299,  0.44430903338549 ]
      - [  0.25982721948229,  0.31625571278405 ]
  - # 5
    frequency:   39.2815217581
    eigenvector:
    - # atom 1
      - [ -0.49999998838908,  0.00000000000000 ]
      - [  0.28867519607873,  0.00000000019546 ]
      - [ -0.40824826120833, -0.00000000019404 ]
    - # atom 2
      - [  0.49999998839033, -0.00000000418914 ]
      - [ -0.28867519607890,  0.00000000258726 ]
      - [  0.40824826120717, -0.00000000358948 ]
  - # 6
    frequency:   39.2805184925
    eigenvector:
    - # atom 1
      - [  0.49999589341820,  0.00000000000000 ]
      - [  0.29016433786368,  0.00180727075262 ]
      - [ -0.40719020648041,  0.00127793343591 ]
    - # atom 2
      - [ -0.49999712168071,  0.00000690323132 ]
      - [ -0.29016502571697,  0.00128013590406 ]
      - [  0.40719122440080,  0.00089673805019 ]

- q-position: [    0.0100000,    0.0000000,    0.0100000 ]
  distance:    0.0056565
  band:
  - # 1
    frequency:    0.6909146064
    eigenvector:
    - # atom 1
      - [ -0.35766281506829,  0.00000000000000 ]
      - [ -0.28136203253168,  0.39644032715604 ]
      - [  0.23909269725434,  0.28032564365634 ]
    - # atom 2
      - [ -0.35397497948007,  0.00069257769625 ]
      - [ -0.27922858114623,  0.40122917308804 ]
      - [  0.23608461747485,  0.28286363810837 ]
  - # 2
    frequency:    0.6909146065
    eigenvector:
    - # atom 1
      - [ -0.34939563636395,  0.00000000000000 ]
      - [ -0.12508693908215, -0.40582064758127 ]
      - [  0.33947069090638, -0.28695853180105 ]
    - # atom 2
      - [ -0.35312990756126, -0.00070895231788 ]
      - [ -0.12724730115903, -0.40189717734916 ]
      - [  0.34251661373124, -0.28331593367958 ]
  - # 3
    frequency:    0.9971607140
    eigenvector:
    - # atom 1
      - [ -0.50000000000935,  0.00000000000000 ]
      - [  0.28867513457368, -0.00000000001198 ]
      - [ -0.40824829046760, -0.00000000003465 ]
    - # atom 2
      - [ -0.50000000000851,  0.00000000888514 ]
      - [  0.28867513457407, -0.00000000514147 ]
      - [ -0.40824829046786,  0.00000000721987 ]
  - # 4
    frequency:   39.2795682302
    eigenvector:
    - # atom 1
      - [  0.00336432242664,  0.00000000000000 ]
      - [ -0.20913306552597, -0.53736893934387 ]
      - [ -0.15199985605484, -0.37997724803949 ]
    - # atom 2
      - [  0.00160701527836, -0.00195263777326 ]
      - [  0.21199123532090,  0.53625241779037 ]
      - [  0.14793226694056,  0.38157923117612 ]
  - # 5
    frequency:   39.2835810294
    eigenvector:
    - # atom 1
      - [ -0.49999999709429,  0.00000000000000 ]
      - [  0.28867514996938,  0.00000000009775 ]
      - [ -0.40824828315090, -0.00000000009699 ]
    - # atom 2
      - [  0.49999999709554, -0.00000000875830 ]
      - [ -0.28867514996955,  0.00000000514093 ]
      - [  0.40824828314974, -0.00000000723567 ]
  - # 6
    frequency:   39.2795682304
    eigenvector:
    - # atom 1
      - [  0.49998868411017,  0.00000000000000 ]
      - [  0.29008889564373,  0.00361584667870 ]
      - [ -0.40723474417469,  0.00255678972198 ]
    - # atom 2
      - [ -0.49999360740044,  0.00001314791498 ]
      - [ -0.29009165702610,  0.00255907684771 ]
      - [  0.40723882135489,  0.00179343773547 ]

- q-position: [    0.0150000,    0.0000000,    0.0150000 ]
  distance:    0.0084847
  band:
  - # 1
    frequency:    1.0362338626
    eigenvector:
    - # atom 1
      - [ -0.35759526063959, -0.00000000000000 ]
      - [ -0.31816234503390,  0.38775797800772 ]
      - [  0.21298820980869,  0.27418629569087 ]
    - # atom 2
      - [ -0.35216805710945,  0.00155024060939 ]
      - [ -0.31501459349614,  0.39522014109545 ]
      - [  0.20856706657867,  0.27756419257776 ]
  - # 2
    frequency:    1.0362338626
    eigenvector:
    - # atom 1
      - [ -0.34946477585131,  0.00000000000000 ]
      - [ -0.08746008955386, -0.39677937459928 ]
      - [  0.36616156958033, -0.28056538637150 ]
    - # atom 2
      - [ -0.35492638671033, -0.00158628871977 ]
      - [ -0.09062803977693, -0.39117779978238 ]
      - [  0.37061057038627, -0.27466167585982 ]
  - # 3
    frequency:    1.4955236467
    eigenvector:
    - # atom 1
      - [ -0.50000000000939,  0.00000000000000 ]
      - [  0.28867513457352, -0.00000000000815 ]
      - [ -0.40824829046766, -0.00000000002303 ]
    - # atom 2
      - [ -0.50000000000856,  0.00000001332771 ]
      - [  0.28867513457391, -0.00000000770237 ]
      - [ -0.40824829046792,  0.00000001085875 ]
  - # 4
    frequency:   39.2779758083
    eigenvector:
    - # atom 1
      - [  0.00483452877110,  0.00000000000000 ]
      - [ -0.13249870212774, -0.56124753955257 ]
      - [ -0.09961179811422, -0.39686195369455 ]
    - # atom 2
      - [  0.00295505744257, -0.00187754684876 ]
      - [  0.13697866457450,  0.56018092371175 ]
      - [  0.09323935417447,  0.39840725827438 ]
  - # 5
    frequency:   39.2870036143
    eigenvector:
    - # atom 1
      - [ -0.49999999870570,  0.00000000000000 ]
      - [  0.28867514143143,  0.00000000006519 ]
      - [ -0.40824828721459, -0.00000000006462 ]
    - # atom 2
      - [  0.49999999870695, -0.00000001324300 ]
      - [ -0.28867514143160,  0.00000000770206 ]
      - [  0.40824828721342, -0.00000001086925 ]
  - # 6
    frequency:   39.2779758085
    eigenvector:
    - # atom 1
      - [  0.49997662807752,  0.00000000000000 ]
      - [  0.28996983256320,  0.00542698849868 ]
      - [ -0.40730417291148,  0.00383746037944 ]
    - # atom 2
      - [ -0.49998774326817,  0.00001816836824 ]
      - [ -0.28997608183787,  0.00383573220332 ]
      - [  0.40731336727763,  0.00269002062544 ]

- q-position: [    0.0200000,    0.0000000,    0.0200000 ]
  distance:    0.0113129
  band:
  - # 1
    frequency:    1.3813872790
    eigenvector:
    - # atom 1
      - [ -0.35894905208161,  0.00000000000000 ]
      - [ -0.35105914523696,  0.37530871554087 ]
      - [  0.19138470843952,  0.26538333777757 ]
    - # atom 2
      - [ -0.35192126033393,  0.00266167894100 ]
      - [ -0.34696879082416,  0.38561713860939 ]
      - [  0.18566977388370,  0.26941261600142 ]
  - # 2
    frequency:    1.3813872790
    eigenvector:
    - # atom 1
      - [ -0.34807409843657,  0.00000000000000 ]
      - [ -0.05264746778030, -0.38703456615543 ]
      - [  0.38907458546745, -0.27367476624345 ]
    - # atom 2
      - [ -0.35515744111888, -0.00274481282622 ]
      - [ -0.05677092046851, -0.37994185064731 ]
      - [  0.39483415173425, -0.26529776357951 ]
  - # 3
    frequency:    1.9936255537
    eigenvector:
    - # atom 1
      - [ -0.50000000000937,  0.00000000000000 ]
      - [  0.28867513457356, -0.00000000000628 ]
      - [ -0.40824829046766, -0.00000000001720 ]
    - # atom 2
      - [ -0.50000000000854,  0.00000001777027 ]
      - [  0.28867513457394, -0.00000001026524 ]
      - [ -0.40824829046792,  0.00000001449183 ]
  - # 4
    frequency:   39.2757282963
    eigenvector:
    - # atom 1
      - [  0.00634934510767,  0.00000000000000 ]
      - [ -0.08627898769659, -0.57025390221686 ]
      - [ -0.06878478626179, -0.40323040843384 ]
    - # atom 2
      - [  0.00420576665486, -0.00166460398623 ]
      - [  0.09235246433442,  0.56931928989329 ]
      - [  0.06015206377985,  0.40460825291706 ]
  - # 5
    frequency:   39.2917752536
    eigenvector:
    - # atom 1
      - [ -0.49999999927003,  0.00000000000000 ]
      - [  0.28867513844283,  0.00000000004892 ]
      - [ -0.40824828863669, -0.00000000004843 ]
    - # atom 2
      - [  0.49999999927128, -0.00000001770660 ]
      - [ -0.28867513844300,  0.00000001026506 ]
      - [  0.40824828863553, -0.00000001449969 ]
  - # 6
    frequency:   39.2757282965
    eigenvector:
    - # atom 1
      - [  0.49995968491928,  0.00000000000000 ]
      - [  0.28979413430507,  0.00724206162562 ]
      - [ -0.40740766069228,  0.00512091089332 ]
    - # atom 2
      - [ -0.49997954048499,  0.00002115782589 ]
      - [ -0.28980533688395,  0.00510878112145 ]
      - [  0.40742405727296,  0.00358654082787 ]

- q-position: [    0.0250000,    0.0000000,    0.0250000 ]
  distance:    0.0141411
  band:
  - # 1
    frequency:    1.7263192719
    eigenvector:
    - # atom 1
      - [ -0.36089690349583,  0.00000000000000 ]
      - [ -0.37904091883661,  0.36130402290154 ]
      - [  0.17398422761282,  0.25548052464310 ]
    - # atom 2
      - [ -0.35240799516002,  0.00394924282331 ]
      - [ -0.37407889817653,  0.37458934373136 ]
      - [  0.16709615912353,  0.26003785019946 ]
  - # 2
    frequency:    1.7263192720
    eigenvector:
    - # atom 1
      - [ -0.34605407820143,  0.00000000000000 ]
      - [ -0.02179680535153, -0.37680094325431 ]
      - [  0.40841528864624, -0.26643850209683 ]
    - # atom 2
      - [ -0.35464918659146, -0.00411860022350 ]
      - [ -0.02682275377550, -0.36836803344105 ]
      - [  0.41538822135561, -0.25543129988237 ]
  - # 3
    frequency:    2.4913792337
    eigenvector:
    - # atom 1
      - [  0.50000000000937, -0.00000000000000 ]
      - [ -0.28867513457361,  0.00000000000519 ]
      - [  0.40824829046762,  0.00000000001368 ]
    - # atom 2
      - [  0.50000000000854, -0.00000002221284 ]
      - [ -0.28867513457399,  0.00000001282890 ]
      - [  0.40824829046789, -0.00000001812261 ]
  - # 4
    frequency:   39.2728076862
    eigenvector:
    - # atom 1
      - [  0.00788961550272,  0.00000000000000 ]
      - [ -0.05411183870290, -0.57428958698414 ]
      - [ -0.04792561468499, -0.40608406595146 ]
    - # atom 2
      - [  0.00540145962716, -0.00135747057488 ]
      - [  0.06176452624651,  0.57354423686591 ]
      - [  0.03705870584102,  0.40721957895313 ]
  - # 5
    frequency:   39.2978760659
    eigenvector:
    - # atom 1
      - [ -0.49999999953116,  0.00000000000000 ]
      - [  0.28867513705969,  0.00000000003916 ]
      - [ -0.40824828929489, -0.00000000003870 ]
    - # atom 2
      - [  0.49999999953241, -0.00000002216175 ]
      - [ -0.28867513705986,  0.00000001282881 ]
      - [  0.40824828929373, -0.00000001812887 ]
  - # 6
    frequency:   39.2728076864
    eigenvector:
    - # atom 1
      - [ -0.49993775055897,  0.00000000000000 ]
      - [ -0.28956503051361, -0.00906297642634 ]
      - [  0.40754279818808, -0.00640849209538 ]
    - # atom 2
      - [  0.49996898055514, -0.00002144476725 ]
      - [  0.28958273035885, -0.00637645482380 ]
      - [ -0.40756853128303, -0.00448257007068 ]

- q-position: [    0.0300000,    0.0000000,    0.0300000 ]
  distance:    0.0169694
  band:
  - # 1
    frequency:    2.0709740015
    eigenvector:
    - # atom 1
      - [ -0.36175054891009,  0.00000000000000 ]
      - [ -0.40516511040006,  0.34685985447188 ]
      - [  0.15655713245235,  0.24526695519767 ]
    - # atom 2
      - [ -0.35193091017666,  0.00545221553916 ]
      - [ -0.39939474260538,  0.36322545664248 ]
      - [  0.14861084647376,  0.25016161045251 ]
  - # 2
    frequency:    2.0709740015
    eigenvector:
    - # atom 1
      - [ -0.34516161483576,  0.00000000000000 ]
      - [  0.00646402641694, -0.36353040823415 ]
      - [  0.42730567449734, -0.25705481679646 ]
    - # atom 2
      - [ -0.35508063240945, -0.00571421780023 ]
      - [  0.00063142961124, -0.35386067201942 ]
      - [  0.43532967164888, -0.24321882180251 ]
  - # 3
    frequency:    2.9886973227
    eigenvector:
    - # atom 1
      - [  0.50000000000931, -0.00000000000000 ]
      - [ -0.28867513457370,  0.00000000000450 ]
      - [  0.40824829046763,  0.00000000001133 ]
    - # atom 2
      - [  0.50000000000848, -0.00000002665541 ]
      - [ -0.28867513457407,  0.00000001539295 ]
      - [  0.40824829046790, -0.00000002175222 ]
  - # 4
    frequency:   39.2691909865
    eigenvector:
    - # atom 1
      - [  0.00944832898388,  0.00000000000000 ]
      - [ -0.03011032856917, -0.57615051107950 ]
      - [ -0.03286301017930, -0.40739993659703 ]
    - # atom 2
      - [  0.00655832732595, -0.00098777881442 ]
      - [  0.03933351239333,  0.57563373916130 ]
      - [  0.01978071578220,  0.40824430070635 ]
  - # 5
    frequency:   39.3052806298
    eigenvector:
    - # atom 1
      - [ -0.49999999967307,  0.00000000000000 ]
      - [  0.28867513630821,  0.00000000003266 ]
      - [ -0.40824828965247, -0.00000000003221 ]
    - # atom 2
      - [  0.49999999967431, -0.00000002661267 ]
      - [ -0.28867513630839,  0.00000001539292 ]
      - [  0.40824828965131, -0.00000002175742 ]
  - # 6
    frequency:   39.2691909867
    eigenvector:
    - # atom 1
      - [ -0.49991072143359,  0.00000000000000 ]
      - [ -0.28929577652313, -0.01088926353380 ]
      - [  0.40770008607922, -0.00769987209248 ]
    - # atom 2
      - [  0.49995601067889, -0.00001869574063 ]
      - [  0.28932157811207, -0.00763958489361 ]
      - [ -0.40773730936953, -0.00537910476584 ]

- q-position: [    0.0350000,    0.0000000,    0.0350000 ]
  distance:    0.0197976
  band:
  - # 1
    frequency:    2.4152953120
    eigenvector:
    - # atom 1
      - [ -0.36291350706695,  0.00000000000000 ]
      - [ -0.42742660035436,  0.33203213765618 ]
      - [  0.14224020898774,  0.23478217608797 ]
    - # atom 2
      - [ -0.35189712725298,  0.00706272940401 ]
      - [ -0.42091360042956,  0.35156126549456 ]
      - [  0.13335334072348,  0.23994131319870 ]
  - # 2
    frequency:    2.4152953120
    eigenvector:
    - # atom 1
      - [ -0.34393863752293,  0.00000000000000 ]
      - [  0.03134663594616, -0.35035013338940 ]
      - [  0.44340250123411, -0.24773495507784 ]
    - # atom 2
      - [ -0.35505350645455, -0.00745233038692 ]
      - [  0.02476835144376, -0.33954324175779 ]
      - [  0.45236383037626, -0.23096612530086 ]
  - # 3
    frequency:    3.4854922565
    eigenvector:
    - # atom 1
      - [  0.50000000000933, -0.00000000000000 ]
      - [ -0.28867513457374,  0.00000000000403 ]
      - [  0.40824829046759,  0.00000000000963 ]
    - # atom 2
      - [  0.50000000000850, -0.00000003109797 ]
      - [ -0.28867513457411,  0.00000001795723 ]
      - [  0.40824829046785, -0.00000002538117 ]
  - # 4
    frequency:   39.2648503415
    eigenvector:
    - # atom 1
      - [  0.01101938561658,  0.00000000000000 ]
      - [ -0.01101017749210, -0.57694855527739 ]
      - [ -0.02128130725708, -0.40796423821043 ]
    - # atom 2
      - [  0.00768888122124, -0.00056308370495 ]
      - [  0.02179926454753,  0.57669545031146 ]
      - [  0.00599749001487,  0.40847489985243 ]
  - # 5
    frequency:   39.3139580872
    eigenvector:
    - # atom 1
      - [ -0.49999999975854,  0.00000000000000 ]
      - [  0.28867513585525,  0.00000000002802 ]
      - [ -0.40824828986809, -0.00000000002757 ]
    - # atom 2
      - [  0.49999999975978, -0.00000003106119 ]
      - [ -0.28867513585543,  0.00000001795726 ]
      - [  0.40824828986692, -0.00000002538560 ]
  - # 6
    frequency:   39.2648503417
    eigenvector:
    - # atom 1
      - [ -0.49987855863200,  0.00000000000000 ]
      - [ -0.28898797668829, -0.01271832631257 ]
      - [  0.40787834241492, -0.00899321478587 ]
    - # atom 2
      - [  0.49994056059674, -0.00001244380778 ]
      - [  0.28902350467016, -0.00890108653812 ]
      - [ -0.40792915692425, -0.00627877815656 ]

- q-position: [    0.0400000,    0.0000000,    0.0400000 ]
  distance:    0.0226258
  band:
  - # 1
    frequency:    2.7592266759
    eigenvector:
    - # atom 1
      - [ -0.36345241452350, -0.00000000000000 ]
      - [ -0.44621537271470,  0.31832294726613 ]
      - [  0.12961456478749,  0.22508831459892 ]
    - # atom 2
      - [ -0.35132340765889,  0.00875942997967 ]
      - [ -0.43899616566639,  0.34104664984915 ]
      - [  0.11986437609512,  0.23042833184631 ]
  - # 2
    frequency:    2.7592266760
    eigenvector:
    - # atom 1
      - [ -0.34336910514755,  0.00000000000000 ]
      - [  0.05195717102422, -0.33694133236237 ]
      - [  0.45727881849324, -0.23825350094587 ]
    - # atom 2
      - [ -0.35554067422706, -0.00927170841681 ]
      - [  0.04470072909333, -0.32502009269383 ]
      - [  0.46705480600577, -0.21846843420410 ]
  - # 3
    frequency:    3.9816762352
    eigenvector:
    - # atom 1
      - [  0.50000000000930, -0.00000000000000 ]
      - [ -0.28867513457381,  0.00000000000371 ]
      - [  0.40824829046757,  0.00000000000835 ]
    - # atom 2
      - [  0.50000000000847, -0.00000003554054 ]
      - [ -0.28867513457417,  0.00000002052164 ]
      - [  0.40824829046784, -0.00000002900971 ]
  - # 4
    frequency:   39.2597531763
    eigenvector:
    - # atom 1
      - [  0.01260966023428,  0.00000000000000 ]
      - [  0.00578563303862, -0.57716470260322 ]
      - [ -0.01135255635066, -0.40811707689584 ]
    - # atom 2
      - [  0.00878992710381, -0.00005538456651 ]
      - [  0.00656809659439,  0.57722713487076 ]
      - [ -0.00612107249472,  0.40822905513933 ]
  - # 5
    frequency:   39.3238722686
    eigenvector:
    - # atom 1
      - [ -0.49999999981409,  0.00000000000000 ]
      - [  0.28867513556115,  0.00000000002454 ]
      - [ -0.40824829000800, -0.00000000002409 ]
    - # atom 2
      - [  0.49999999981534, -0.00000003550819 ]
      - [ -0.28867513556134,  0.00000002052172 ]
      - [  0.40824829000683, -0.00000002901357 ]
  - # 6
    frequency:   39.2597531765
    eigenvector:
    - # atom 1
      - [ -0.49984097136248,  0.00000000000000 ]
      - [ -0.28862102373546, -0.01456033264189 ]
      - [  0.40809178265822, -0.01029570995183 ]
    - # atom 2
      - [  0.49992272832786, -0.00000143275656 ]
      - [  0.28866819088511, -0.01015069234332 ]
      - [ -0.40815856186880, -0.00717586862426 ]

- q-position: [    0.0450000,    0.0000000,    0.0450000 ]
  distance:    0.0254541
  band:
  - # 1
    frequency:    3.1027111418
    eigenvector:
    - # atom 1
      - [ -0.36405184032429, -0.00000000000000 ]
      - [ -0.46322259737711,  0.30429240487215 ]
      - [  0.11832278457675,  0.21516722292887 ]
    - # atom 2
      - [ -0.35093821857605,  0.01055351170695 ]
      - [ -0.45535781023560,  0.33027721631636 ]
      - [  0.10782318791702,  0.22061589997189 ]
  - # 2
    frequency:    3.1027111418
    eigenvector:
    - # atom 1
      - [ -0.34273350806326,  0.00000000000000 ]
      - [  0.07089902560784, -0.32321966595834 ]
      - [  0.46989428804605, -0.22855081758405 ]
    - # atom 2
      - [ -0.35581642522304, -0.01120989135989 ]
      - [  0.06303370470640, -0.31025738313539 ]
      - [  0.48035590199698, -0.20565584254888 ]
  - # 3
    frequency:    4.4771611902
    eigenvector:
    - # atom 1
      - [  0.50000000000924, -0.00000000000000 ]
      - [ -0.28867513457389,  0.00000000000347 ]
      - [  0.40824829046758,  0.00000000000735 ]
    - # atom 2
      - [  0.50000000000841, -0.00000003998311 ]
      - [ -0.28867513457425,  0.00000002308615 ]
      - [  0.40824829046786, -0.00000003263797 ]
  - # 4
    frequency:   39.2538623663
    eigenvector:
    - # atom 1
      - [  0.01421566562598,  0.00000000000000 ]
      - [  0.02086699113417, -0.57697800729490 ]
      - [ -0.00265537260244, -0.40798506299596 ]
    - # atom 2
      - [  0.00986499347956,  0.00052799513683 ]
      - [ -0.00694928064285,  0.57740388636679 ]
      - [ -0.01699598366936,  0.40763954563966 ]
  - # 5
    frequency:   39.3349818399
    eigenvector:
    - # atom 1
      - [ -0.49999999985219,  0.00000000000000 ]
      - [  0.28867513535943,  0.00000000002183 ]
      - [ -0.40824829010398, -0.00000000002137 ]
    - # atom 2
      - [  0.49999999985343, -0.00000003995420 ]
      - [ -0.28867513535963,  0.00000002308628 ]
      - [  0.40824829010281, -0.00000003264138 ]
  - # 6
    frequency:   39.2538623665
    eigenvector:
    - # atom 1
      - [ -0.49979787414167,  0.00000000000000 ]
      - [ -0.28819836361920, -0.01641088700104 ]
      - [  0.40833786548674, -0.01160424948777 ]
    - # atom 2
      - [  0.49990239352210,  0.00001497769445 ]
      - [  0.28825912480496, -0.01139309870565 ]
      - [ -0.40842291041330, -0.00807448120418 ]

- q-position: [    0.0500000,    0.0000000,    0.0500000 ]
  distance:    0.0282823
  band:
  - # 1
    frequency:    3.4456912855
    eigenvector:
    - # atom 1
      - [ -0.36490670318992, -0.00000000000000 ]
      - [ -0.47717512660220,  0.29115391617602 ]
      - [  0.10950384545890,  0.20587690847784 ]
    - # atom 2
      - [ -0.35088421758960,  0.01235595049557 ]
      - [ -0.46869702279899,  0.32042831263553 ]
      - [  0.09832480282803,  0.21144414573015 ]
  - # 2
    frequency:    3.4456912856
    eigenvector:
    - # atom 1
      - [ -0.34182319693075,  0.00000000000000 ]
      - [  0.08714105792109, -0.31081569836464 ]
      - [  0.48026424034230, -0.21977988798642 ]
    - # atom 2
      - [ -0.35574374566832, -0.01319028965851 ]
      - [  0.07869600002178, -0.29685417891739 ]
      - [  0.49134180330977, -0.19375286329862 ]
  - # 3
    frequency:    4.9718587547
    eigenvector:
    - # atom 1
      - [  0.50000000000920, -0.00000000000000 ]
      - [ -0.28867513457399,  0.00000000000330 ]
      - [  0.40824829046756,  0.00000000000654 ]
    - # atom 2
      - [  0.50000000000837, -0.00000004442567 ]
      - [ -0.28867513457434,  0.00000002565072 ]
      - [  0.40824829046784, -0.00000003626604 ]
  - # 4
    frequency:   39.2471364291
    eigenvector:
    - # atom 1
      - [  0.01584063291674,  0.00000000000000 ]
      - [  0.03488148064427, -0.57648627848887 ]
      - [  0.00526419762993, -0.40763735794932 ]
    - # atom 2
      - [  0.01091049385998,  0.00119322659342 ]
      - [ -0.01939975058475,  0.57732768826577 ]
      - [ -0.02708026664358,  0.40677092635760 ]
  - # 5
    frequency:   39.3472404676
    eigenvector:
    - # atom 1
      - [ -0.49999999987944,  0.00000000000000 ]
      - [  0.28867513521512,  0.00000000001967 ]
      - [ -0.40824829017265, -0.00000000001919 ]
    - # atom 2
      - [  0.49999999988068, -0.00000004439950 ]
      - [ -0.28867513521533,  0.00000002565089 ]
      - [  0.40824829017147, -0.00000003626908 ]
  - # 6
    frequency:   39.2471364293
    eigenvector:
    - # atom 1
      - [ -0.49974901147203,  0.00000000000000 ]
      - [ -0.28771447174709, -0.01827298767781 ]
      - [  0.40862018447432, -0.01292095350328 ]
    - # atom 2
      - [  0.49987952151326,  0.00003777750496 ]
      - [  0.28779099052765, -0.01262545514949 ]
      - [ -0.40872591902726, -0.00897381275376 ]

- q-position: [    0.0550000,    0.0000000,    0.0550000 ]
  distance:    0.0311105
  band:
  - # 1
    frequency:    3.7881091674
    eigenvector:
    - # atom 1
      - [ -0.36516565813100, -0.00000000000000 ]
      - [ -0.48915285157381,  0.27941773951059 ]
      - [  0.10135146864552,  0.19757817837302 ]
    - # atom 2
      - [ -0.35027264085373,  0.01420277544097 ]
      - [ -0.48007074210506,  0.31197785826554 ]
      - [  0.08953334330987,  0.20320688276134 ]
  - # 2
    frequency:    3.7881091675
    eigenvector:
    - # atom 1
      - [ -0.34154654458020,  0.00000000000000 ]
      - [  0.10037945406120, -0.29874043336027 ]
      - [  0.48928637147608, -0.21124138621859 ]
    - # atom 2
      - [ -0.35619766676947, -0.01518487460123 ]
      - [  0.09140356353924, -0.28374980841980 ]
      - [  0.50088334518457, -0.18204381637877 ]
  - # 3
    frequency:    5.4656802359
    eigenvector:
    - # atom 1
      - [  0.50000000000917, -0.00000000000000 ]
      - [ -0.28867513457408,  0.00000000000318 ]
      - [  0.40824829046754,  0.00000000000587 ]
    - # atom 2
      - [  0.50000000000834, -0.00000004886824 ]
      - [ -0.28867513457442,  0.00000002821534 ]
      - [  0.40824829046782, -0.00000003989397 ]
  - # 4
    frequency:   39.2395297398
    eigenvector:
    - # atom 1
      - [  0.01748570871839,  0.00000000000000 ]
      - [  0.04729991907597, -0.57579639483088 ]
      - [  0.01203056151581, -0.40714953633411 ]
    - # atom 2
      - [  0.01192725096255,  0.00189852636265 ]
      - [ -0.03025363924018,  0.57708177431538 ]
      - [ -0.03600039297104,  0.40573322645810 ]
  - # 5
    frequency:   39.3605970043
    eigenvector:
    - # atom 1
      - [ -0.49999999989960,  0.00000000000000 ]
      - [  0.28867513510840,  0.00000000001790 ]
      - [ -0.40824829022343, -0.00000000001741 ]
    - # atom 2
      - [  0.49999999990084, -0.00000004884428 ]
      - [ -0.28867513510861,  0.00000002821555 ]
      - [  0.40824829022224, -0.00000003989671 ]
  - # 6
    frequency:   39.2395297400
    eigenvector:
    - # atom 1
      - [ -0.49969415654871,  0.00000000000000 ]
      - [ -0.28719666427276, -0.02014874082035 ]
      - [  0.40891914641467, -0.01424731126999 ]
    - # atom 2
      - [  0.49985411069262,  0.00006638595890 ]
      - [  0.28729127453612, -0.01384676895220 ]
      - [ -0.40904814987120, -0.00987245008310 ]

- q-position: [    0.0600000,    0.0000000,    0.0600000 ]
  distance:    0.0339387
  band:
  - # 1
    frequency:    4.1299062940
    eigenvector:
    - # atom 1
      - [ -0.36605904944008, -0.00000000000000 ]
      - [ -0.49912877546704,  0.26804437464454 ]
      - [  0.09539160163685,  0.18953599495189 ]
    - # atom 2
      - [ -0.35036995142018,  0.01603071527141 ]
      - [ -0.48947470938181,  0.30393251083098 ]
      - [  0.08300291489650,  0.19527920310143 ]
  - # 2
    frequency:    4.1299062941
    eigenvector:
    - # atom 1
      - [ -0.34058886111559,  0.00000000000000 ]
      - [  0.11266674335669, -0.28808948321902 ]
      - [  0.49680187914635, -0.20371002714888 ]