54   
1    

1    
  0.1000000000000000   0.0000000000000000   0.0000000000000000
  -4.7434899970   -0.4249279930   -0.3004690079
   0.3517280030    0.0860016070    0.0608122921
   0.3048970030   -0.0757069930   -0.0535329079
   0.0085895230    0.0885657070   -0.0282392079
   0.0095051230    0.0004028830   -0.0000353182
   0.0196356030   -0.1088599930    0.0224530921
   0.0066420830    0.2491670070   -0.0890854079
   0.0167947030   -0.2728559930    0.0784435921
   0.0093410030   -0.0024117030    0.0031595621
   0.0085895230    0.0028977170    0.0929135921
   0.0095051230    0.0001010090    0.0003915971
   0.0196356030   -0.0151175930   -0.1101180079
   0.0109592030    0.0004849530    0.0003429001
   0.0083679330   -0.0001480250   -0.0001046829
   0.0265757030    0.0015732870    0.0011124621
  -0.0019690470    0.0021751070   -0.0002075289
   0.0188979030    0.0034647070   -0.0050008579
   0.0144030030   -0.0076751630    0.0105349921
   0.0066420830   -0.0009348600    0.2646119921
   0.0167947030   -0.0169944930   -0.2833990079
   0.0093410030    0.0021749770   -0.0033269779
  -0.0019690470    0.0005293890    0.0021198721
   0.0188979030   -0.0035599430    0.0049334921
   0.0144030030    0.0073740770   -0.0107479079
   0.0100231030   -0.0014940430   -0.0010564679
   0.0267150030   -0.0000558053   -0.0000394735
   0.0091558230   -0.0012415630   -0.0008779299
   0.0047837130    0.0009537380    0.0006743821
  -0.0274361970   -0.0072762630   -0.0051451079
  -0.0290116970    0.0109680070    0.0077555721
  -0.0226096970   -0.0153194930    0.0056838021
   0.7124000030    0.0231476070    0.0343060921
  -0.0209226970    0.0060458470   -0.0050974779
  -0.0079400470    0.0000221146    0.0136523921
  -0.0094854970    0.0044860070   -0.0078160379
  -0.0214347970   -0.0018369130    0.0039004521
  -0.0226096970    0.0002522430   -0.0163380079
   0.7124000030    0.0400600070    0.0103883921
  -0.0209226970   -0.0027906530    0.0073992221
   0.9409920030   -0.1295349930   -0.0915953079
   1.5651500030    0.5355910070    0.3787199921
   0.0586714030   -0.0009854220   -0.0006968109
  -0.0257085970    0.0066316370    0.0033492921
   0.0316728030    0.0255348070    0.0223119921
   0.0238002030   -0.0229701930   -0.0174122079
  -0.0079400470    0.0128789070   -0.0045299479
  -0.0094854970   -0.0058736830    0.0068347721
  -0.0214347970    0.0030650870   -0.0030320179
  -0.0257085970    0.0053683070    0.0051359121
   0.0316728030    0.0295475070    0.0166370921
   0.0238002030   -0.0240730930   -0.0158524079
  -0.0099456570   -0.0080300530   -0.0056781179
  -0.0188856970   -0.0026534330   -0.0018762679
  -0.0124727970    0.0038630970    0.0027316121
