  54   54
1 1
    47.434899970361187    -0.000000000006987    -0.000000000003785
    -0.000000000006987    47.434899970385452    -0.000000000013922
    -0.000000000003785    -0.000000000013922    47.434899970360405
1 2
    -3.263791348029672    -0.811978406190134    -0.574155437188616
     0.811978406181979     0.909495486309027     0.629645302901967
     0.574155437179543     0.629645302904510     0.464269022830581
1 3
    -3.263791347970021     0.811978406171391     0.574155437170413
    -0.811978406159572     0.909495486303354     0.629645302906340
    -0.574155437147609     0.629645302892405     0.464269022815168
1 4
    -0.133826222302793    -0.995107801717867     0.258211109108759
    -2.619064614076311    -2.220469639431676    -0.812055845775059
     0.832366546313760     0.182410542878995     0.464269022853076
1 5
    -0.095151158106230    -0.000000000013684    -0.000000000008601
    -0.000000000013244    -0.095151158101411    -0.000000000000055
    -0.000000000007596    -0.000000000003727    -0.095441360180234
1 6
    -0.133826222295694     0.995107801707318    -0.258211109118184
     2.619064614112529    -2.220469639482728    -0.812055845784294
    -0.832366546320958     0.182410542896710     0.464269022857659
1 7
    -0.133826222296388    -2.619064614079182     0.832366546304489
    -0.995107801741666    -2.220469639488207     0.182410542889001
     0.258211109118019    -0.812055845746965     0.464269022846952
1 8
    -0.133826222292549     2.619064614065800    -0.832366546307345
     0.995107801728932    -2.220469639476727     0.182410542891014
    -0.258211109119617    -0.812055845759059     0.464269022849683
1 9
    -0.095151158103738     0.000000000005720     0.000000000000561
     0.000000000002040    -0.095151158109786     0.000000000002519
     0.000000000005444     0.000000000003479    -0.095441360179803
1 10
    -0.133826222298121    -0.088258832279871    -1.024267002509520
    -0.088258832295418    -0.031913701152444    -0.591360829644217
    -2.746733314073582    -1.585827218299700    -1.724286915432065
1 11
    -0.095151158120797    -0.000000000002418    -0.000000000001730
    -0.000000000005736    -0.095409115492733     0.000091201701927
     0.000000000002243     0.000091201701476    -0.095183402777942
1 12
    -0.133826222297303     0.088258832276304     1.024267002506026
     0.088258832270644    -0.031913701154717    -0.591360829635502
     2.746733314014377    -1.585827218262324    -1.724286915382878
1 13
    -0.095344626166434     0.000111698826153     0.000078982998329
     0.000111698823667    -0.095215647435307    -0.000045600867347
     0.000078982998538    -0.000045600869083    -0.095183402787344
1 14
    -0.095344626147323    -0.000111698833861    -0.000078983001805
    -0.000111698834881    -0.095215647447009    -0.000045600857532
    -0.000078983000309    -0.000045600856763    -0.095183402797769
1 15
    -0.264270459916959    -0.000000000000259    -0.000000000001825
    -0.000000000002517    -0.135371266018849     0.091145494089894
    -0.000000000001099     0.091145494088421    -0.199820862953731
1 16
     0.019042559414391     0.000000000001327    -0.000000000000238
    -0.000000000006607    -0.184782482864156     1.182721659258979
    -0.000000000003803     3.171654436526133    -1.724286915498108
1 17
    -0.167596064484115    -0.055814988213648     0.078934313327223
    -0.055814988219081    -0.232045661433594    -0.045572747050298
     0.078934313329123    -0.045572747047975    -0.199820862972643
1 18
    -0.167596064504025     0.055814988216901    -0.078934313326596
     0.055814988217768    -0.232045661434779    -0.045572747052274
    -0.078934313323921    -0.045572747051858    -0.199820862954283
1 19
    -0.133826222301693    -0.088258832304532    -2.746733314068102
    -0.088258832284906    -0.031913701161772    -1.585827218322742
    -1.024267002510030    -0.591360829640565    -1.724286915428772
1 20
    -0.133826222281003     0.088258832277109     2.746733314006429
     0.088258832259423    -0.031913701160967    -1.585827218274928
     1.024267002495307    -0.591360829638601    -1.724286915401807
1 21
    -0.095151158120368     0.000000000000453    -0.000000000000130
    -0.000000000003439    -0.095409115482660     0.000091201701594
    -0.000000000000261     0.000091201700049    -0.095183402787629
1 22
     0.019042559400110    -0.000000000001697    -0.000000000003818
    -0.000000000003702    -0.184782482808905     3.171654436511362
    -0.000000000000959     1.182721659207423    -1.724286915485049
1 23
    -0.167596064501438     0.055814988213609    -0.078934313328688
     0.055814988212726    -0.232045661421250    -0.045572747055669
    -0.078934313326754    -0.045572747055637    -0.199820862972030
1 24
    -0.167596064500482    -0.055814988220452     0.078934313322204
    -0.055814988220749    -0.232045661439338    -0.045572747055340
     0.078934313324822    -0.045572747053745    -0.199820862948294
1 25
    -0.095344626146174     0.000111698829061     0.000078982994127
     0.000111698825282    -0.095215647454633    -0.000045600855049
     0.000078982996874    -0.000045600855214    -0.095183402792147
1 26
    -0.264270459927004    -0.000000000003795    -0.000000000005226
    -0.000000000003554    -0.135371266011411     0.091145494087690
    -0.000000000005432     0.091145494081777    -0.199820862951854
1 27
    -0.095344626163384    -0.000111698826476    -0.000078982996528
    -0.000111698824654    -0.095215647456755    -0.000045600859667
    -0.000078982993599    -0.000045600863998    -0.095183402772566
1 28
    -0.047837129639965    -0.000000000005570    -0.000000000003324
    -0.000000000005464    -0.047837129612403    -0.000000000011402
    -0.000000000001610    -0.000000000010221    -0.047837129638793
1 29
     0.273239131270171     0.080869342266376     0.057183260303748
     0.080869342263779     0.116832481701870    -0.095527745246236
     0.057183260303189    -0.095527745242536     0.184380798135896
1 30
     0.273239131272477    -0.080869342272541    -0.057183260308635
    -0.080869342270819     0.116832481702439    -0.095527745242298
    -0.057183260306864    -0.095527745243289     0.184380798133984
1 31
     0.225969048874472     0.108160737049287    -0.054137823994502
     0.108160737053463     0.164102564103793     0.097286028707406
    -0.054137823995273     0.097286028703737     0.184380798128855
1 32
    -7.035637298679836     0.000000000051259     0.000000000116930
     0.000000000048479    -7.035637298828885     0.000000000118024
     0.000000000055550     0.000000000019183   -15.410790491387599
1 33
     0.225969048869557    -0.108160737058492     0.054137823985431
    -0.108160737063185     0.164102564105182     0.097286028702335
     0.054137823989064     0.097286028703364     0.184380798132882
1 34
     0.085899239306923     0.027291394789405    -0.111321084298349
     0.027291394789925     0.304172373677618    -0.001758283481161
    -0.111321084296590    -0.001758283483671     0.184380798125868
1 35
     0.085899239304477    -0.027291394796019     0.111321084293140
    -0.027291394801208     0.304172373670951    -0.001758283480387
     0.111321084296966    -0.001758283482380     0.184380798135124
1 36
     0.214533473495931     0.000000000000992     0.000000000003341
     0.000000000002065     0.214533473506424    -0.000000000004464
     0.000000000005165    -0.000000000008929     0.060593414108757
1 37
     0.225969048861292    -0.014988050932188     0.120020862171414
    -0.014988050935855     0.243275759360456     0.069294077074600
     0.120020862169715     0.069294077071008     0.105207602884290
1 38
    -7.035637298765256    -0.000000000001554    -0.000000000003899
    -0.000000000003755   -14.480217914363418     2.632056718252875
     0.000000000000066     2.632056718251498    -7.966209875762209
1 39
     0.225969048864593     0.014988050921218    -0.120020862180539
     0.014988050920116     0.243275759366711     0.069294077070529
    -0.120020862180286     0.069294077068639     0.105207602875212
1 40
   -12.619072760559511     3.223597966886016     2.279427982142432
     3.223597966913006    -8.896782452823167    -1.316028359057389
     2.279427982056655    -1.316028358998610    -7.966209875521776
1 41
   -12.619072760324539    -3.223597966759649    -2.279427982055352
    -3.223597966790066    -8.896782452755833    -1.316028358998171
    -2.279427982015070    -1.316028358966842    -7.966209875663489
1 42
    -0.642072184140496    -0.000000000006042    -0.000000000002805
    -0.000000000004341    -0.137034312172590    -0.229784558588660
     0.000000000002247    -0.229784558581253     0.025447907422424
1 43
     0.251929114584998    -0.000000000002563    -0.000000000004271
    -0.000000000004693     0.217315693652155    -0.138588154183951
    -0.000000000002067    -0.138588154181615     0.105207602872079
1 44
    -0.263293780154775    -0.218687813484276    -0.198999265120052
    -0.218687813486721    -0.515812716138167     0.114892279293431
    -0.198999265115364     0.114892279298620     0.025447907403165
1 45
    -0.263293780170992     0.218687813493271     0.198999265123898
     0.218687813493382    -0.515812716145140     0.114892279287034
     0.198999265121007     0.114892279284039     0.025447907415154
1 46
     0.085899239303779    -0.095857393195877     0.062837601864507
    -0.095857393199928     0.196585822838372     0.036279306349797
     0.062837601869819     0.036279306346798     0.291967348962740
1 47
     0.085899239291801     0.095857393185661    -0.062837601875392
     0.095857393187280     0.196585822832367     0.036279306348606
    -0.062837601873368     0.036279306344893     0.291967348985186
1 48
     0.214533473494530     0.000000000003574     0.000000000000100
     0.000000000001940     0.077697865172819     0.048378693275622
    -0.000000000000795     0.048378693275795     0.197429022436510
1 49
     0.251929114584991    -0.000000000002990    -0.000000000004167
    -0.000000000004700     0.030555947558508    -0.072558612717345
    -0.000000000000386    -0.072558612715964     0.291967348971696
1 50
    -0.263293780155756    -0.260514244268857    -0.139847759473593
    -0.260514244276232     0.037522157942769    -0.080741141581128
    -0.139847759470974    -0.080741141586727    -0.527886966676150
1 51
    -0.263293780172879     0.260514244262403     0.139847759467410
     0.260514244263145     0.037522157949638    -0.080741141585113
     0.139847759462409    -0.080741141585541    -0.527886966653563
1 52
     0.111906767252288     0.059251556471470     0.041897177373179
     0.059251556469979     0.180324571422033    -0.024189346644305
     0.041897177374206    -0.024189346646996     0.197429022439240
1 53
     0.187930126992953    -0.000000000010453    -0.000000000003611
    -0.000000000005007    -0.413701749216118     0.161482283153522
    -0.000000000003115     0.161482283150931    -0.527886966679554
1 54
     0.111906767236812    -0.059251556480145    -0.041897177384862
    -0.059251556486553     0.180324571415604    -0.024189346650163
    -0.041897177383033    -0.024189346646174     0.197429022457499
2 1
    -3.263791348029672     0.811978406181979     0.574155437179543
    -0.811978406190134     0.909495486309027     0.629645302904510
    -0.574155437188616     0.629645302901967     0.464269022830581
2 2
    47.434899970368946    -0.000000000001168    -0.000000000005288
    -0.000000000001168    47.434899970381927    -0.000000000007615
    -0.000000000005288    -0.000000000007615    47.434899970361862
2 3
    -3.263791347986357    -0.811978406179414    -0.574155437177370
     0.811978406227909     0.909495486314827     0.629645302920122
     0.574155437195729     0.629645302903645     0.464269022822512
2 4
    -0.133826222305477     0.995107801715015    -0.258211109119684
     2.619064614063623    -2.220469639434532    -0.812055845770347
    -0.832366546332554     0.182410542885246     0.464269022852653
2 5
    -0.133826222304283    -0.995107801730079     0.258211109099500
    -2.619064614124421    -2.220469639483363    -0.812055845773393
     0.832366546336876     0.182410542910550     0.464269022855665
2 6
    -0.095151158115332    -0.000000000000876     0.000000000000926
    -0.000000000003391    -0.095151158108783     0.000000000001066
    -0.000000000001186    -0.000000000004548    -0.095441360163226
2 7
    -0.095151158102770    -0.000000000013127    -0.000000000003917
    -0.000000000010478    -0.095151158108503     0.000000000002088
    -0.000000000011731    -0.000000000001201    -0.095441360176944
2 8
    -0.133826222279635    -2.619064614015304     0.832366546307623
    -0.995107801719792    -2.220469639445280     0.182410542884932
     0.258211109130078    -0.812055845720089     0.464269022838677
2 9
    -0.133826222286266     2.619064614069422    -0.832366546309341
     0.995107801731434    -2.220469639483766     0.182410542896281
    -0.258211109124004    -0.812055845750018     0.464269022849380
2 10
    -0.133826222294239     0.088258832277666     1.024267002504613
     0.088258832290900    -0.031913701154206    -0.591360829639793
     2.746733314064113    -1.585827218297819    -1.724286915431338
2 11
    -0.133826222296113    -0.088258832275377    -1.024267002508555
    -0.088258832271139    -0.031913701155235    -0.591360829632272
    -2.746733314018595    -1.585827218260506    -1.724286915381457
2 12
    -0.095151158114223     0.000000000003345    -0.000000000000800
     0.000000000005241    -0.095409115495739     0.000091201707545
    -0.000000000006461     0.000091201703420    -0.095183402777909
2 13
    -0.264270459924376     0.000000000003636     0.000000000003838
     0.000000000001837    -0.135371265994514     0.091145494084185
    -0.000000000000921     0.091145494079773    -0.199820862968161
2 14
    -0.095344626143410     0.000111698818628     0.000078982993029
     0.000111698818127    -0.095215647448748    -0.000045600853091
     0.000078982989511    -0.000045600854872    -0.095183402797035
2 15
    -0.095344626151804    -0.000111698822547    -0.000078982996597
    -0.000111698824279    -0.095215647461946    -0.000045600855115
    -0.000078983000907    -0.000045600855234    -0.095183402772942
2 16
    -0.167596064483256     0.055814988211166    -0.078934313328465
     0.055814988216537    -0.232045661437230    -0.045572747044696
    -0.078934313333987    -0.045572747042230    -0.199820862968357
2 17
     0.019042559421323    -0.000000000010915     0.000000000003125
     0.000000000003919    -0.184782482851691     1.182721659257502
    -0.000000000001260     3.171654436524241    -1.724286915496089
2 18
    -0.167596064500552    -0.055814988220621     0.078934313326985
    -0.055814988222022    -0.232045661436752    -0.045572747047551
     0.078934313322094    -0.045572747049837    -0.199820862953754
2 19
    -0.095151158109231    -0.000000000008459    -0.000000000006160
    -0.000000000011913    -0.095409115493179     0.000091201704617
    -0.000000000009285     0.000091201703444    -0.095183402786900
2 20
    -0.133826222290578    -0.088258832301197    -2.746733314067216
    -0.088258832276335    -0.031913701164242    -1.585827218315730
    -1.024267002515494    -0.591360829637790    -1.724286915433060
2 21
    -0.133826222301209     0.088258832296314     2.746733314083834
     0.088258832274200    -0.031913701158587    -1.585827218278802
     1.024267002500903    -0.591360829639489    -1.724286915428042
2 22
    -0.167596064499788    -0.055814988218952     0.078934313323599
    -0.055814988220432    -0.232045661422895    -0.045572747060353
     0.078934313321417    -0.045572747063153    -0.199820862968315
2 23
     0.019042559406631    -0.000000000006521     0.000000000004106
    -0.000000000004019    -0.184782482814231     3.171654436523490
    -0.000000000004760     1.182721659216812    -1.724286915493898
2 24
    -0.167596064496600     0.055814988222001    -0.078934313327322
     0.055814988225408    -0.232045661441100    -0.045572747050916
    -0.078934313327496    -0.045572747051864    -0.199820862947568
2 25
    -0.095344626142318    -0.000111698818143    -0.000078982997249
    -0.000111698821410    -0.095215647456415    -0.000045600850639
    -0.000078982999513    -0.000045600853341    -0.095183402791426
2 26
    -0.095344626161292     0.000111698823575     0.000078982993407
     0.000111698824221    -0.095215647454483    -0.000045600857229
     0.000078982988077    -0.000045600861948    -0.095183402770824
2 27
    -0.264270459921332     0.000000000000894     0.000000000002105
     0.000000000003121    -0.135371266017207     0.091145494094100
    -0.000000000000091     0.091145494083490    -0.199820862952143
2 28
     0.273239131269347    -0.080869342265437    -0.057183260305275
    -0.080869342264370     0.116832481708144    -0.095527745242911
    -0.057183260308248    -0.095527745243899     0.184380798135283
2 29
    -0.047837129625794     0.000000000008446     0.000000000003167
     0.000000000006931    -0.047837129624853    -0.000000000001715
    -0.000000000000758    -0.000000000002972    -0.047837129637361
2 30
     0.273239131278212     0.080869342253462     0.057183260297838
     0.080869342258028     0.116832481702080    -0.095527745236882
     0.057183260293535    -0.095527745240830     0.184380798135119
2 31
     0.225969048877216    -0.108160737064108     0.054137823985350
    -0.108160737065865     0.164102564100237     0.097286028712726
     0.054137823982594     0.097286028704350     0.184380798130215
2 32
     0.225969048874429     0.108160737065758    -0.054137823981271
     0.108160737066833     0.164102564095873     0.097286028713567
    -0.054137823990067     0.097286028712822     0.184380798132545
2 33
    -7.035637298756871     0.000000000003478    -0.000000000002489
    -0.000000000000692    -7.035637298746037    -0.000000000073942
    -0.000000000003898    -0.000000000075455   -15.410790491386607
2 34
     0.214533473501318    -0.000000000005163    -0.000000000005594
    -0.000000000004283     0.214533473503474     0.000000000001729
    -0.000000000006570    -0.000000000004849     0.060593414106404
2 35
     0.085899239309580     0.027291394799505    -0.111321084287934
     0.027291394798770     0.304172373668855    -0.001758283474557
    -0.111321084292274    -0.001758283480871     0.184380798137420
2 36
     0.085899239308845    -0.027291394793349     0.111321084295666
    -0.027291394792352     0.304172373676839    -0.001758283478165
     0.111321084295788    -0.001758283483853     0.184380798129482
2 37
     0.225969048865530     0.014988050925221    -0.120020862175273
     0.014988050924567     0.243275759358751     0.069294077078566
    -0.120020862176964     0.069294077072852     0.105207602885321
2 38
     0.225969048868936    -0.014988050926237     0.120020862171703
    -0.014988050927914     0.243275759366176     0.069294077073404
     0.120020862170626     0.069294077069484     0.105207602876835
2 39
    -7.035637298761834    -0.000000000003466    -0.000000000004938
    -0.000000000004044   -14.480217914366406     2.632056718258848
    -0.000000000009726     2.632056718254415    -7.966209875762377
2 40
    -0.642072184135000    -0.000000000000043    -0.000000000003756
     0.000000000000196    -0.137034312175139    -0.229784558582554
    -0.000000000008090    -0.229784558579208     0.025447907420838
2 41
   -12.619072760393706     3.223597966898116     2.279427982193330
     3.223597966953784    -8.896782452798414    -1.316028359022609
     2.279427982199603    -1.316028359010546    -7.966209875694997
2 42
   -12.619072760557245    -3.223597966892100    -2.279427982148993
    -3.223597966917151    -8.896782452824141    -1.316028359054648
    -2.279427982062497    -1.316028358996892    -7.966209875518736
2 43
    -0.263293780162719     0.218687813494071     0.198999265123937
     0.218687813492466    -0.515812716121362     0.114892279284832
     0.198999265121100     0.114892279284625     0.025447907396160
2 44
     0.251929114592263     0.000000000007103     0.000000000007022
     0.000000000007137     0.217315693641572    -0.138588154171533
     0.000000000001482    -0.138588154174383     0.105207602882249
2 45
    -0.263293780167110    -0.218687813492055    -0.198999265127208
    -0.218687813497056    -0.515812716146902     0.114892279291458
    -0.198999265124644     0.114892279285920     0.025447907415881
2 46
     0.214533473498629    -0.000000000005404    -0.000000000004145
    -0.000000000003733     0.077697865171233     0.048378693279966
    -0.000000000004985     0.048378693275449     0.197429022436043
2 47
     0.085899239295683    -0.095857393191446     0.062837601868118
    -0.095857393193802     0.196585822830605     0.036279306353030
     0.062837601863964     0.036279306346775     0.291967348985913
2 48
     0.085899239307444     0.095857393194046    -0.062837601868552
     0.095857393198134     0.196585822836433     0.036279306354300
    -0.062837601875599     0.036279306350907     0.291967348964662
2 49
    -0.263293780164580     0.260514244263536     0.139847759466073
     0.260514244260361     0.037522157958990    -0.080741141582090
     0.139847759462762    -0.080741141586157    -0.527886966677084
2 50
     0.251929114596538    -0.000000000006326    -0.000000000002436
    -0.000000000003565     0.030555947540899    -0.072558612711296
    -0.000000000007595    -0.072558612711787     0.291967348974531
2 51
    -0.263293780169633    -0.260514244262668    -0.139847759464157
    -0.260514244265394     0.037522157946889    -0.080741141581219
    -0.139847759463338    -0.080741141583006    -0.527886966652485
2 52
     0.111906767254708    -0.059251556482923    -0.041897177387239
    -0.059251556486147     0.180324571419296    -0.024189346640571
    -0.041897177391058    -0.024189346645804     0.197429022439480
2 53
     0.111906767248908     0.059251556475315     0.041897177380283
     0.059251556476930     0.180324571415237    -0.024189346641267
     0.041897177374109    -0.024189346642262     0.197429022449221
2 54
     0.187930126990126     0.000000000001730    -0.000000000001499
    -0.000000000003311    -0.413701749221475     0.161482283150635
    -0.000000000005905     0.161482283144146    -0.527886966655889
3 1
    -3.263791347970021    -0.811978406159572    -0.574155437147609
     0.811978406171391     0.909495486303354     0.629645302892405
     0.574155437170413     0.629645302906340     0.464269022815168
3 2
    -3.263791347986357     0.811978406227909     0.574155437195729
    -0.811978406179414     0.909495486314827     0.629645302903645
    -0.574155437177370     0.629645302920122     0.464269022822512
3 3
    47.434899969259234    -0.000000000761749    -0.000000000537729
    -0.000000000761749    47.434899971648591    -0.000000000852855
    -0.000000000537729    -0.000000000852855    47.434899970203368
3 4
    -0.095151158107925     0.000000000009184     0.000000000003033
     0.000000000005642    -0.095151158101730    -0.000000000005013
     0.000000000000160    -0.000000000005844    -0.095441360178454
3 5
    -0.133826222258830     0.995107801698890    -0.258211109122307
     2.619064614104994    -2.220469639515682    -0.812055845770366
    -0.832366546342555     0.182410542927503     0.464269022850558
3 6
    -0.133826222284779    -0.995107801724786     0.258211109131916
    -2.619064614058763    -2.220469639494822    -0.812055845740771
     0.832366546318460     0.182410542897222     0.464269022844858
3 7
    -0.133826222281322     2.619064614061072    -0.832366546319654
     0.995107801731808    -2.220469639489417     0.182410542894513
    -0.258211109120899    -0.812055845734299     0.464269022844000
3 8
    -0.095151158090510     0.000000000018241     0.000000000015370
     0.000000000016272    -0.095151158113185     0.000000000008654
     0.000000000014424     0.000000000003810    -0.095441360183628
3 9
    -0.133826222248426    -2.619064614045930     0.832366546335514
    -0.995107801681792    -2.220469639479734     0.182410542912958
     0.258211109140367    -0.812055845725382     0.464269022836927
3 10
    -0.095151158100082     0.000000000011096     0.000000000007725
     0.000000000009729    -0.095409115485399     0.000091201704739
     0.000000000004771     0.000091201701262    -0.095183402795006
3 11
    -0.133826222297102     0.088258832283320     1.024267002517639
     0.088258832278136    -0.031913701156462    -0.591360829625997
     2.746733314017453    -1.585827218284573    -1.724286915388833
3 12
    -0.133826222280953    -0.088258832257282    -1.024267002499307
    -0.088258832248758    -0.031913701156194    -0.591360829623734
    -2.746733313957731    -1.585827218239285    -1.724286915357548
3 13
    -0.095344626150798    -0.000111698810212    -0.000078982983721
    -0.000111698812581    -0.095215647444034    -0.000045600860353
    -0.000078982986731    -0.000045600861592    -0.095183402792205
3 14
    -0.264270459889067     0.000000000005930     0.000000000007187
     0.000000000001937    -0.135371266016010     0.091145494099173
     0.000000000003342     0.091145494100269    -0.199820862985749
3 15
    -0.095344626140026     0.000111698838175     0.000078983005781
     0.000111698836011    -0.095215647468892    -0.000045600852530
     0.000078983003306    -0.000045600849617    -0.095183402778524
3 16
    -0.167596064471032    -0.055814988217419     0.078934313331180
    -0.055814988214222    -0.232045661446122    -0.045572747039115
     0.078934313329658    -0.045572747037364    -0.199820862973259
3 17
    -0.167596064467600     0.055814988240391    -0.078934313311092
     0.055814988237947    -0.232045661445105    -0.045572747041030
    -0.078934313313151    -0.045572747040175    -0.199820862975552
3 18
     0.019042559414451     0.000000000005458     0.000000000013943
     0.000000000004129    -0.184782482871017     1.182721659259252
    -0.000000000008344     3.171654436527592    -1.724286915483012
3 19
    -0.133826222288855     0.088258832266700     2.746733314013542
     0.088258832275268    -0.031913701154549    -1.585827218269146
     1.024267002507549    -0.591360829633668    -1.724286915399759
3 20
    -0.095151158090250     0.000000000003075     0.000000000002230
     0.000000000003897    -0.095409115500853     0.000091201709786
    -0.000000000000367     0.000091201709934    -0.095183402797511
3 21
    -0.133826222267978    -0.088258832252814    -2.746733314060687
    -0.088258832254693    -0.031913701149826    -1.585827218276907
    -1.024267002470096    -0.591360829618332    -1.724286915407734
3 22
    -0.167596064487156     0.055814988233770    -0.078934313318370
     0.055814988230502    -0.232045661431724    -0.045572747056808
    -0.078934313316825    -0.045572747056585    -0.199820862972869
3 23
    -0.167596064485334    -0.055814988213918     0.078934313334977
    -0.055814988211681    -0.232045661430985    -0.045572747046965
     0.078934313332496    -0.045572747048240    -0.199820862977123
3 24
     0.019042559417587     0.000000000012020     0.000000000006945
    -0.000000000003441    -0.184782482872878     3.171654436594957
     0.000000000007974     1.182721659233132    -1.724286915470044
3 25
    -0.264270459887936     0.000000000019051     0.000000000009167
     0.000000000015215    -0.135371266023619     0.091145494101616
     0.000000000008642     0.091145494101764    -0.199820862980124
3 26
    -0.095344626149501    -0.000111698815388    -0.000078982990416
    -0.000111698815212    -0.095215647461396    -0.000045600854661
    -0.000078982993924    -0.000045600856364    -0.095183402776398
3 27
    -0.095344626147745     0.000111698836868     0.000078983007639
     0.000111698838752    -0.095215647465452    -0.000045600852692
     0.000078983007375    -0.000045600856548    -0.095183402777425
3 28
     0.273239131275550     0.080869342268609     0.057183260307356
     0.080869342268404     0.116832481704352    -0.095527745242499
     0.057183260306682    -0.095527745242920     0.184380798129545
3 29
     0.273239131284293    -0.080869342247083    -0.057183260291221
    -0.080869342248555     0.116832481698945    -0.095527745239540
    -0.057183260292793    -0.095527745237816     0.184380798132199
3 30
    -0.047837129612285     0.000000000001156     0.000000000004494
     0.000000000002388    -0.047837129630582     0.000000000004368
     0.000000000001390     0.000000000001442    -0.047837129644931
3 31
    -7.035637298571450     0.000000000002073    -0.000000000045536
     0.000000000003148    -7.035637298944864     0.000000000135157
     0.000000000049991     0.000000000132159   -15.410790491347136
3 32
     0.225969048883535    -0.108160737044200     0.054137824005210
    -0.108160737046476     0.164102564093829     0.097286028713602
     0.054137823999995     0.097286028718303     0.184380798124572
3 33
     0.225969048880810     0.108160737072947    -0.054137823985643
     0.108160737065033     0.164102564098200     0.097286028706215
    -0.054137823984235     0.097286028710079     0.184380798127040
3 34
     0.085899239320309    -0.027291394792833     0.111321084294575
    -0.027291394796472     0.304172373674074    -0.001758283475647
     0.111321084293979    -0.001758283479826     0.184380798120744
3 35
     0.214533473507403     0.000000000011932     0.000000000011838
     0.000000000007410     0.214533473494247     0.000000000001952
     0.000000000010021     0.000000000000501     0.060593414110026
3 36
     0.085899239320094     0.027291394810281    -0.111321084279028
     0.027291394811275     0.304172373674752    -0.001758283477924
    -0.111321084279349    -0.001758283480246     0.184380798125690
3 37
    -7.035637298694269     0.000000000034687     0.000000000063583
     0.000000000095602   -14.480217914851135     2.632056718502329
     0.000000000039105     2.632056718450664    -7.966209875639629
3 38
     0.225969048877445     0.014988050937915    -0.120020862168495
     0.014988050933791     0.243275759363058     0.069294077072742