nqpoint: 427    
npath: 6      
segment_nqpoint:
- 95
- 34
- 101
- 82
- 67
- 48
labels:
- [ '$\Gamma$', '$\mathrm{X}$' ]
- [ '$\mathrm{X}$', '$\mathrm{U}$' ]
- [ '$\mathrm{K}$', '$\Gamma$' ]
- [ '$\Gamma$', '$\mathrm{L}$' ]
- [ '$\mathrm{L}$', '$\mathrm{W}$' ]
- [ '$\mathrm{W}$', '$\mathrm{X}$' ]
reciprocal_lattice:
- [   0.39997193,  -0.23092390,  -0.16328786 ] # a*
- [   0.00000000,   0.46184781,  -0.16328786 ] # b*
- [   0.00000000,   0.00000000,   0.48986357 ] # c*
natom: 2      
lattice:
- [     2.500175429000000,     0.000000000000000,     0.000000000000000 ] # a
- [     1.250087714500000,     2.165215435399999,     0.000000000000000 ] # b
- [     1.250087714500000,     0.721738478500000,     2.041384689500000 ] # c
points:
- symbol: C  # 1
  coordinates: [  0.999997454617902,  0.999997454587760,  0.999997454570897 ]
  mass: 12.010700
- symbol: C  # 2
  coordinates: [  0.249997596000766,  0.249997596026479,  0.249997596006757 ]
  mass: 12.010700

phonon:
- q-position: [    0.0000000,    0.0000000,    0.0000000 ]
  distance:    0.0000000
  band:
  - # 1
    frequency:   -0.0364130539
    eigenvector:
    - # atom 1
      - [  0.70424389107250,  0.00000000000000 ]
      - [ -0.06269509842588,  0.00000000000000 ]
      - [  0.01048172323496,  0.00000000000000 ]
    - # atom 2
      - [  0.70424389107025,  0.00000000000000 ]
      - [ -0.06269509842635,  0.00000000000000 ]
      - [  0.01048172323636,  0.00000000000000 ]
  - # 2
    frequency:   -0.0364130539
    eigenvector:
    - # atom 1
      - [  0.06342715796632, -0.00000000000000 ]
      - [  0.70077606678971,  0.00000000000000 ]
      - [ -0.06992781883164,  0.00000000000000 ]
    - # atom 2
      - [  0.06342715796557,  0.00000000000000 ]
      - [  0.70077606679070,  0.00000000000000 ]
      - [ -0.06992781882970,  0.00000000000000 ]
  - # 3
    frequency:   -0.0364130539
    eigenvector:
    - # atom 1
      - [ -0.00418778235096,  0.00000000000000 ]
      - [  0.07058490523651,  0.00000000000000 ]
      - [  0.70356253000760,  0.00000000000000 ]
    - # atom 2
      - [ -0.00418778234944,  0.00000000000000 ]
      - [  0.07058490523855,  0.00000000000000 ]
      - [  0.70356253000888,  0.00000000000000 ]
  - # 4
    frequency:   39.6240667736
    eigenvector:
    - # atom 1
      - [ -0.11097533516757,  0.00000000000000 ]
      - [ -0.47418179279797,  0.00000000000000 ]
      - [ -0.51267543569555,  0.00000000000000 ]
    - # atom 2
      - [  0.11097533516706,  0.00000000000000 ]
      - [  0.47418179279581,  0.00000000000000 ]
      - [  0.51267543569322,  0.00000000000000 ]
  - # 5
    frequency:   39.6240667737
    eigenvector:
    - # atom 1
      - [ -0.33824767974547,  0.00000000000000 ]
      - [  0.49065050284654,  0.00000000000000 ]
      - [ -0.38059242136864,  0.00000000000000 ]
    - # atom 2
      - [  0.33824767974547,  0.00000000000000 ]
      - [ -0.49065050284654,  0.00000000000000 ]
      - [  0.38059242136864,  0.00000000000000 ]
  - # 6
    frequency:   39.6240667738
    eigenvector:
    - # atom 1
      - [ -0.61096070424342,  0.00000000000000 ]
      - [ -0.18550932978211,  0.00000000000000 ]
      - [  0.30383104915711,  0.00000000000000 ]
    - # atom 2
      - [  0.61096070424619,  0.00000000000000 ]
      - [  0.18550932978295,  0.00000000000000 ]
      - [ -0.30383104915849,  0.00000000000000 ]

- q-position: [    0.0053191,    0.0000000,    0.0053191 ]
  distance:    0.0030088
  band:
  - # 1
    frequency:    0.3610009228
    eigenvector:
    - # atom 1
      - [ -0.35223659548342,  0.00000000000000 ]
      - [ -0.20765655776523,  0.40974066688876 ]
      - [  0.28456460365630,  0.28973040410491 ]
    - # atom 2
      - [ -0.35041434958321,  0.00001904573280 ]
      - [ -0.20660442339658,  0.41182966716733 ]
      - [  0.28307678868338,  0.29118422420522 ]
  - # 2
    frequency:    0.3610009229
    eigenvector:
    - # atom 1
      - [ -0.35486529951893,  0.00000000000000 ]
      - [ -0.20062071004310, -0.40670546748772 ]
      - [  0.29275919112957, -0.28758419397445 ]
    - # atom 2
      - [ -0.35666480466110, -0.00001889799054 ]
      - [ -0.20165971454467, -0.40461211508484 ]
      - [  0.29422843869577, -0.28608082507899 ]
  - # 3
    frequency:    0.5378482603
    eigenvector:
    - # atom 1
      - [ -0.50000000000123,  0.00000000000000 ]
      - [  0.28867513459109, -0.00000000000000 ]
      - [ -0.40824829046499, -0.00000000003662 ]
    - # atom 2
      - [ -0.50000000000073,  0.00000000472607 ]
      - [  0.28867513459080, -0.00000000272859 ]
      - [ -0.40824829046581,  0.00000000382221 ]
  - # 4
    frequency:   39.6227745976
    eigenvector:
    - # atom 1
      - [ -0.00130240497092,  0.00000000000000 ]
      - [ -0.00802094114280,  0.57730254435958 ]
      - [ -0.00407654819475,  0.40821455422040 ]
    - # atom 2
      - [ -0.00125854777342, -0.00003224553113 ]
      - [  0.00654227359238, -0.57732129109457 ]
      - [  0.00616748608221, -0.40818831761354 ]
  - # 5
    frequency:   39.6227745978
    eigenvector:
    - # atom 1
      - [ -0.49999829952465,  0.00000000000000 ]
      - [ -0.28865522812809, -0.00150376852121 ]
      - [  0.40826029413233, -0.00106332491866 ]
    - # atom 2
      - [  0.49999841080414,  0.00000007924617 ]
      - [  0.28865529260926, -0.00145355363938 ]
      - [ -0.40826038482482, -0.00102791469155 ]
  - # 6
    frequency:   39.6255079529
    eigenvector:
    - # atom 1
      - [ -0.50000000421211,  0.00000000000000 ]
      - [  0.28867513702180,  0.00000000000000 ]
      - [ -0.40824828358896, -0.00000000002687 ]
    - # atom 2
      - [  0.50000000421270, -0.00000000470450 ]
      - [ -0.28867513702214,  0.00000000271614 ]
      - [  0.40824828358801, -0.00000000386718 ]

- q-position: [    0.0106383,    0.0000000,    0.0106383 ]
  distance:    0.0060175
  band:
  - # 1
    frequency:    0.7246607462
    eigenvector:
    - # atom 1
      - [  0.34953628995025,  0.00000000000000 ]
      - [  0.20387255718646, -0.41282954596234 ]
      - [ -0.28393311078484, -0.29191457143237 ]
    - # atom 2
      - [  0.34585411457857, -0.00001835704625 ]
      - [  0.20174653578749, -0.41695459941700 ]
      - [ -0.28092670953196, -0.29480894200564 ]
  - # 2
    frequency:    0.7246607463
    eigenvector:
    - # atom 1
      - [  0.35752535855319, -0.00000000000000 ]
      - [  0.20439587930386,  0.40360467985121 ]
      - [ -0.29334763699140,  0.28539160602385 ]
    - # atom 2
      - [  0.36108853591393,  0.00001793363145 ]
      - [  0.20645319441155,  0.39936317119803 ]
      - [ -0.29625687872718,  0.28237044237061 ]
  - # 3
    frequency:    1.0773767685
    eigenvector:
    - # atom 1
      - [ -0.50000000000087,  0.00000000000000 ]
      - [  0.28867513459201, -0.00000000000000 ]
      - [ -0.40824829046478, -0.00000000001833 ]
    - # atom 2
      - [ -0.50000000000037,  0.00000000945213 ]
      - [  0.28867513459172, -0.00000000545719 ]
      - [ -0.40824829046560,  0.00000000769932 ]
  - # 4
    frequency:   39.6188991892
    eigenvector:
    - # atom 1
      - [ -0.00260593923008,  0.00000000000000 ]
      - [  0.00041474767788,  0.57733923624700 ]
      - [  0.00348488161126,  0.40824049156973 ]
    - # atom 2
      - [ -0.00251802570102,  0.00001703353217 ]
      - [ -0.00337298032889, -0.57732992205745 ]
      - [  0.00069888179144, -0.40825476717288 ]
  - # 5
    frequency:   39.6188991894
    eigenvector:
    - # atom 1
      - [ -0.49999320797960,  0.00000000000000 ]
      - [ -0.28868121887909, -0.00300906280478 ]
      - [  0.40823567231463, -0.00212772871423 ]
    - # atom 2
      - [  0.49999365816391, -0.00000009824047 ]
      - [  0.28868147821214, -0.00290767167132 ]
      - [ -0.40823604029797, -0.00205591403670 ]
  - # 6
    frequency:   39.6298266868
    eigenvector:
    - # atom 1
      - [ -0.50000000105335,  0.00000000000000 ]
      - [  0.28867513519955,  0.00000000000000 ]
      - [ -0.40824828874616, -0.00000000001345 ]
    - # atom 2
      - [  0.50000000105393, -0.00000000944135 ]
      - [ -0.28867513519989,  0.00000000545096 ]
      - [  0.40824828874521, -0.00000000772182 ]

- q-position: [    0.0159574,    0.0000000,    0.0159574 ]
  distance:    0.0090263
  band:
  - # 1
    frequency:    1.0875272588
    eigenvector:
    - # atom 1
      - [  0.34775661354403,  0.00000000000000 ]
      - [  0.20117994988424, -0.41483364728076 ]
      - [ -0.28365742212054, -0.29333168506062 ]
    - # atom 2
      - [  0.34219014055261, -0.00000537177266 ]
      - [  0.19796608565194, -0.42096356852642 ]
      - [ -0.27911245806600, -0.29765961489152 ]
  - # 2
    frequency:    1.0875272589
    eigenvector:
    - # atom 1
      - [  0.35925664605829, -0.00000000000000 ]
      - [  0.20702723255896,  0.40155455979820 ]
      - [ -0.29360737474971,  0.28394195223658 ]
    - # atom 2
      - [  0.36456262514248,  0.00000518008843 ]
      - [  0.21009069830811,  0.39512993819615 ]
      - [ -0.29793964801667,  0.27939271444954 ]
  - # 3
    frequency:    1.6161605697
    eigenvector:
    - # atom 1
      - [ -0.50000000000098,  0.00000000000000 ]
      - [  0.28867513459200, -0.00000000000000 ]
      - [ -0.40824829046465, -0.00000000001225 ]
    - # atom 2
      - [ -0.50000000000048,  0.00000001417820 ]
      - [  0.28867513459171, -0.00000000818578 ]
      - [ -0.40824829046548,  0.00000001156423 ]
  - # 4
    frequency:   39.6124439023
    eigenvector:
    - # atom 1
      - [ -0.00391258661382,  0.00000000000000 ]
      - [ -0.00212820343139,  0.57733257703940 ]
      - [  0.00328705331131,  0.40823578136640 ]
    - # atom 2
      - [ -0.00377760760908,  0.00000174134799 ]
      - [ -0.00231173317360, -0.57733277029788 ]
      - [  0.00299196334174, -0.40823805072637 ]
  - # 5
    frequency:   39.6124439024
    eigenvector:
    - # atom 1
      - [ -0.49998469096146,  0.00000000000000 ]
      - [ -0.28866732000963, -0.00451786575357 ]
      - [  0.40823506769270, -0.00319461351078 ]
    - # atom 2
      - [  0.49998572900659, -0.00000002781094 ]
      - [  0.28866791907984, -0.00436202194019 ]
      - [ -0.40823591542512, -0.00308438123223 ]
  - # 6
    frequency:   39.6370085810
    eigenvector:
    - # atom 1
      - [ -0.50000000046852,  0.00000000000000 ]
      - [  0.28867513486193,  0.00000000000000 ]
      - [ -0.40824828970116, -0.00000000000898 ]
    - # atom 2
      - [  0.50000000046911, -0.00000001417100 ]
      - [ -0.28867513486227,  0.00000000818164 ]
      - [  0.40824828970021, -0.00000001157925 ]

- q-position: [    0.0212766,    0.0000000,    0.0212766 ]
  distance:    0.0120350
  band:
  - # 1
    frequency:    1.4499706777
    eigenvector:
    - # atom 1
      - [  0.34557339243798,  0.00000000000000 ]
      - [  0.20016393393514, -0.41725885881005 ]
      - [ -0.28170196503748, -0.29504656857670 ]
    - # atom 2
      - [  0.33808492419259, -0.00001151228793 ]
      - [  0.19584031243261, -0.42536652570734 ]
      - [ -0.27558776404405, -0.30076545520473 ]
  - # 2
    frequency:    1.4499706778
    eigenvector:
    - # atom 1
      - [  0.36135720615408, -0.00000000000000 ]
      - [  0.20801089980433,  0.39903330252769 ]
      - [ -0.29548446717244,  0.28215915412575 ]
    - # atom 2
      - [  0.36837288686645,  0.00001098328791 ]
      - [  0.21206155002430,  0.39039269525003 ]
      - [ -0.30121264390654,  0.27603587040168 ]
  - # 3
    frequency:    2.1543419378
    eigenvector:
    - # atom 1
      - [ -0.50000000000107,  0.00000000000000 ]
      - [  0.28867513459201, -0.00000000000000 ]
      - [ -0.40824829046454, -0.00000000000922 ]
    - # atom 2
      - [ -0.50000000000056,  0.00000001890426 ]
      - [  0.28867513459172, -0.00000001091438 ]
      - [ -0.40824829046537,  0.00000001542610 ]
  - # 4
    frequency:   39.6034143102
    eigenvector:
    - # atom 1
      - [ -0.00522428301268,  0.00000000000000 ]
      - [ -0.00366924937979,  0.57731838332297 ]
      - [  0.00380386270743,  0.40822574439147 ]
    - # atom 2
      - [ -0.00503715194088, -0.00001160533324 ]
      - [ -0.00225535219409, -0.57732730110080 ]
      - [  0.00457445117632, -0.40821783663885 ]
  - # 5
    frequency:   39.6034143104
    eigenvector:
    - # atom 1
      - [ -0.49997270585672,  0.00000000000000 ]
      - [ -0.28865255354924, -0.00603247854837 ]
      - [  0.40823082995963, -0.00426560648883 ]
    - # atom 2
      - [  0.49997462605919,  0.00000010235897 ]
      - [  0.28865366339497, -0.00581635439738 ]
      - [ -0.40823239693689, -0.00411290899972 ]
  - # 6
    frequency:   39.6470296964
    eigenvector:
    - # atom 1
      - [ -0.50000000026367,  0.00000000000000 ]
      - [  0.28867513474367,  0.00000000000000 ]
      - [ -0.40824829003568, -0.00000000000675 ]
    - # atom 2
      - [  0.50000000026425, -0.00000001889887 ]
      - [ -0.28867513474400,  0.00000001091127 ]
      - [  0.40824829003473, -0.00000001543737 ]

- q-position: [    0.0265957,    0.0000000,    0.0265957 ]
  distance:    0.0150438
  band:
  - # 1
    frequency:    1.8119932210
    eigenvector:
    - # atom 1
      - [  0.34401654422473, -0.00000000000000 ]
      - [  0.19878867729642, -0.41897111350541 ]
      - [ -0.28076767646903, -0.29625731548168 ]
    - # atom 2
      - [  0.33458659045690, -0.00000381012396 ]
      - [  0.19334421441644, -0.42903489729526 ]
      - [ -0.27306820557774, -0.30336881881503 ]
  - # 2
    frequency:    1.8119932211
    eigenvector:
    - # atom 1
      - [  0.36283965783846,  0.00000000000000 ]
      - [  0.20932379319987,  0.39723605588436 ]
      - [ -0.29637173644561,  0.28088830883816 ]
    - # atom 2
      - [  0.37155324444413,  0.00000357991294 ]
      - [  0.21435465637119,  0.38634934918517 ]
      - [ -0.30348629948974,  0.27318586022745 ]
  - # 3
    frequency:    2.6918170675
    eigenvector:
    - # atom 1
      - [  0.50000000000099, -0.00000000000000 ]
      - [ -0.28867513459209,  0.00000000000000 ]
      - [  0.40824829046457,  0.00000000000740 ]
    - # atom 2
      - [  0.50000000000048, -0.00000002363033 ]
      - [ -0.28867513459180,  0.00000001364297 ]
      - [  0.40824829046540, -0.00000001928674 ]
  - # 4
    frequency:   39.5918181817
    eigenvector:
    - # atom 1
      - [ -0.00654162440525,  0.00000000000000 ]
      - [ -0.00519200680364,  0.57729911934246 ]
      - [  0.00434051772106,  0.40821212246815 ]
    - # atom 2
      - [ -0.00629775434468, -0.00003146902634 ]
      - [ -0.00222130584516, -0.57732090389652 ]
      - [  0.00614244190973, -0.40818898494400 ]
  - # 5
    frequency:   39.5918181819
    eigenvector:
    - # atom 1
      - [  0.49995720514824,  0.00000000000000 ]
      - [  0.28863191038874,  0.00755359452623 ]
      - [ -0.40822644223296,  0.00534119791173 ]
    - # atom 2
      - [ -0.49996033555871, -0.00000038812342 ]
      - [ -0.28863372349271,  0.00727186347470 ]
      - [  0.40822899412757,  0.00514245932691 ]
  - # 6
    frequency:   39.6598566274
    eigenvector:
    - # atom 1
      - [ -0.50000000016886,  0.00000000000000 ]
      - [  0.28867513468901,  0.00000000000000 ]
      - [ -0.40824829019045, -0.00000000000541 ]
    - # atom 2
      - [  0.50000000016944, -0.00000002362601 ]
      - [ -0.28867513468934,  0.00000001364049 ]
      - [  0.40824829018950, -0.00000001929577 ]

- q-position: [    0.0319149,    0.0000000,    0.0319149 ]
  distance:    0.0180525
  band:
  - # 1
    frequency:    2.1735366839
    eigenvector:
    - # atom 1
      - [  0.34192271800639,  0.00000000000000 ]
      - [  0.19718150215844, -0.42125022814865 ]
      - [ -0.27933971798608, -0.29786889290015 ]
    - # atom 2
      - [  0.33050625087639,  0.00000606351257 ]
      - [  0.19059028556987, -0.43322558296918 ]
      - [ -0.27001815236620, -0.30634417375770 ]
  - # 2
    frequency:    2.1735366840
    eigenvector:
    - # atom 1
      - [  0.36481345220775, -0.00000000000000 ]
      - [  0.21083853041202,  0.39481828890305 ]
      - [ -0.29771805002138,  0.27917868941123 ]
    - # atom 2
      - [  0.37518744389964, -0.00000572189475 ]
      - [  0.21682787739950,  0.38163238274435 ]
      - [ -0.30618843527323,  0.26986185361269 ]
  - # 3
    frequency:    3.2284421740
    eigenvector:
    - # atom 1
      - [  0.50000000000104, -0.00000000000000 ]
      - [ -0.28867513459207,  0.00000000000000 ]
      - [  0.40824829046453,  0.00000000000620 ]
    - # atom 2
      - [  0.50000000000053, -0.00000002835639 ]
      - [ -0.28867513459177,  0.00000001637157 ]
      - [  0.40824829046536, -0.00000002314677 ]
  - # 4
    frequency:   39.5776654466
    eigenvector:
    - # atom 1
      - [ -0.00786729050735,  0.00000000000000 ]
      - [ -0.00471297545524,  0.57727877003317 ]
      - [  0.00630284679655,  0.40819773320758 ]
    - # atom 2
      - [ -0.00755851421576, -0.00000456232739 ]
      - [ -0.00419323107157, -0.57728690473746 ]
      - [  0.00629218939538, -0.40819789762362 ]
  - # 5
    frequency:   39.5776654468
    eigenvector:
    - # atom 1
      - [  0.49993810178961,  0.00000000000000 ]
      - [  0.28863671022406,  0.00908436418677 ]
      - [ -0.40819965137037,  0.00642361551911 ]
    - # atom 2
      - [ -0.49994286546132, -0.00000004344513 ]
      - [ -0.28863946131458,  0.00872779652757 ]
      - [  0.40820354033666,  0.00617153731856 ]
  - # 6
    frequency:   39.6754466102
    eigenvector:
    - # atom 1
      - [ -0.50000000011743,  0.00000000000000 ]
      - [  0.28867513465930,  0.00000000000000 ]
      - [ -0.40824829027445, -0.00000000000452 ]
    - # atom 2
      - [  0.50000000011801, -0.00000002835279 ]
      - [ -0.28867513465964,  0.00000001636950 ]
      - [  0.40824829027349, -0.00000002315431 ]

- q-position: [    0.0372340,    0.0000000,    0.0372340 ]
  distance:    0.0210613
  band:
  - # 1
    frequency:    2.5345262720
    eigenvector:
    - # atom 1
      - [  0.33997267671998,  0.00000000000000 ]
      - [  0.19648079521436, -0.42334942200881 ]
      - [ -0.27744688955393, -0.29935324711305 ]
    - # atom 2
      - [  0.32653890029621, -0.00000618500900 ]
      - [  0.18872464356827, -0.43722558523571 ]
      - [ -0.26647836820129, -0.30915760117050 ]
  - # 2
    frequency:    2.5345262721
    eigenvector:
    - # atom 1
      - [  0.36663139402467, -0.00000000000000 ]
      - [  0.21149161443141,  0.39256659013384 ]
      - [ -0.29948276479871,  0.27758649794297 ]
    - # atom 2
      - [  0.37864541000853,  0.00000569019343 ]
      - [  0.21842805369764,  0.37705788488304 ]
      - [ -0.30929206601843,  0.26661321825862 ]
  - # 3
    frequency:    3.7640630845
    eigenvector:
    - # atom 1
      - [  0.50000000000103, -0.00000000000000 ]
      - [ -0.28867513459208,  0.00000000000000 ]
      - [  0.40824829046453,  0.00000000000534 ]
    - # atom 2
      - [  0.50000000000052, -0.00000003308246 ]
      - [ -0.28867513459178,  0.00000001910016 ]
      - [  0.40824829046537, -0.00000002700646 ]
  - # 4
    frequency:   39.5609681527
    eigenvector:
    - # atom 1
      - [ -0.00920000700419,  0.00000000000000 ]
      - [ -0.00645613027310,  0.57725139222756 ]
      - [  0.00670248789839,  0.40817837409945 ]
    - # atom 2
      - [ -0.00882224804491, -0.00003571989874 ]
      - [ -0.00394980519801, -0.57727987776780 ]
      - [  0.00801206900767, -0.40815476865388 ]
  - # 5
    frequency:   39.5609681529
    eigenvector:
    - # atom 1
      - [  0.49991535261794,  0.00000000000000 ]
      - [  0.28860520115266,  0.01062323216075 ]
      - [ -0.40819406964099,  0.00751175949884 ]
    - # atom 2
      - [ -0.49992216051887, -0.00000062428821 ]
      - [ -0.28860914470360,  0.01018675588574 ]
      - [  0.40819961906967,  0.00720388875875 ]
  - # 6
    frequency:   39.6937476608
    eigenvector:
    - # atom 1
      - [ -0.50000000008635,  0.00000000000000 ]
      - [  0.28867513464136,  0.00000000000000 ]
      - [ -0.40824829032519, -0.00000000000389 ]
    - # atom 2
      - [  0.50000000008694, -0.00000003307937 ]
      - [ -0.28867513464170,  0.00000001909839 ]
      - [  0.40824829032423, -0.00000002701293 ]

- q-position: [    0.0425532,    0.0000000,    0.0425532 ]
  distance:    0.0240700
  band:
  - # 1
    frequency:    2.8948816621
    eigenvector:
    - # atom 1
      - [  0.33804367991986, -0.00000000000000 ]
      - [  0.19529861604265, -0.42540405574808 ]
      - [ -0.27592028752538, -0.30080609256247 ]
    - # atom 2
      - [  0.32255811936832, -0.00000463322076 ]
      - [  0.18635788031676, -0.44114701592675 ]
      - [ -0.26327648152075, -0.31193237194828 ]
  - # 2
    frequency:    2.8948816622
    eigenvector:
    - # atom 1
      - [  0.36841073609068,  0.00000000000000 ]
      - [  0.21258366484472,  0.39033920125125 ]
      - [ -0.30088980861538,  0.27601149616022 ]
    - # atom 2
      - [  0.38204222225861,  0.00000420004803 ]
      - [  0.22045393598160,  0.37246044026484 ]
      - [ -0.31201977929945,  0.26336415904138 ]
  - # 3
    frequency:    4.2985228248
    eigenvector:
    - # atom 1
      - [  0.50000000000102, -0.00000000000000 ]
      - [ -0.28867513459208,  0.00000000000001 ]
      - [  0.40824829046454,  0.00000000000471 ]
    - # atom 2
      - [  0.50000000000050, -0.00000003780852 ]
      - [ -0.28867513459178,  0.00000002182876 ]
      - [  0.40824829046538, -0.00000003086593 ]
  - # 4
    frequency:   39.5417404133
    eigenvector:
    - # atom 1
      - [ -0.01054504893995,  0.00000000000000 ]
      - [ -0.00693094215094,  0.57722123915948 ]
      - [  0.00801407841257,  0.40815705261123 ]
    - # atom 2
      - [ -0.01008548772660, -0.00003010715420 ]
      - [ -0.00498086477941, -0.57724957164776 ]
      - [  0.00883014610716, -0.40814021312166 ]
  - # 5
    frequency:   39.5417404135
    eigenvector:
    - # atom 1
      - [  0.49988878950719,  0.00000000000000 ]
      - [  0.28859314959183,  0.01217636071017 ]
      - [ -0.40817005829844,  0.00860998722817 ]
    - # atom 2
      - [ -0.49989827161670, -0.00000059731657 ]
      - [ -0.28859863834206,  0.01164541158903 ]
      - [  0.40817779032946,  0.00823528106458 ]
  - # 6
    frequency:   39.7146987420
    eigenvector:
    - # atom 1
      - [ -0.50000000006623,  0.00000000000000 ]
      - [  0.28867513462973,  0.00000000000001 ]
      - [ -0.40824829035806, -0.00000000000342 ]
    - # atom 2
      - [  0.50000000006682, -0.00000003780582 ]
      - [ -0.28867513463007,  0.00000002182721 ]
      - [  0.40824829035710, -0.00000003087161 ]

- q-position: [    0.0478723,    0.0000000,    0.0478723 ]
  distance:    0.0270788
  band:
  - # 1
    frequency:    3.2545207894
    eigenvector:
    - # atom 1
      - [  0.33622696361132, -0.00000000000000 ]
      - [  0.19453318087776, -0.42731924264900 ]
      - [ -0.27423651793973, -0.30216033420697 ]
    - # atom 2
      - [  0.31865811438788, -0.00001663381589 ]
      - [  0.18438931720047, -0.44491690260160 ]
      - [ -0.25989195475161, -0.31458338671266 ]
  - # 2
    frequency:    3.2545207895
    eigenvector:
    - # atom 1
      - [  0.37006949204352,  0.00000000000000 ]
      - [  0.21328498637534,  0.38824127505162 ]
      - [ -0.30242545225107,  0.27452803831841 ]
    - # atom 2
      - [  0.38530118820119,  0.00001505526175 ]
      - [  0.22207944676931,  0.36796319853168 ]
      - [ -0.31486177142243,  0.26017083404830 ]
  - # 3
    frequency:    4.8316643150
    eigenvector:
    - # atom 1
      - [  0.50000000000102, -0.00000000000000 ]
      - [ -0.28867513459209,  0.00000000000001 ]
      - [  0.40824829046454,  0.00000000000422 ]
    - # atom 2
      - [  0.50000000000050, -0.00000004253459 ]
      - [ -0.28867513459179,  0.00000002455735 ]
      - [  0.40824829046539, -0.00000003472525 ]
  - # 4
    frequency:   39.5199983460
    eigenvector:
    - # atom 1
      - [ -0.01189520992587,  0.00000000000000 ]
      - [ -0.00733284524918,  0.57718667305419 ]
      - [  0.00938349274962,  0.40813261064998 ]
    - # atom 2
      - [ -0.01135708085840, -0.00001872719944 ]
      - [ -0.00609242317031, -0.57721193762007 ]
      - [  0.00960153279781, -0.40812753935290 ]
  - # 5
    frequency:   39.5199983462
    eigenvector:
    - # atom 1
      - [  0.49985848389992,  0.00000000000000 ]
      - [  0.28858236128493,  0.01373540084528 ]
      - [ -0.40814057011252,  0.00971239507982 ]
    - # atom 2
      - [ -0.49987099967107, -0.00000040315096 ]
      - [ -0.28858959812183,  0.01311380778861 ]
      - [  0.40815078152113,  0.00927335617141 ]
  - # 6
    frequency:   39.7382299585
    eigenvector:
    - # atom 1
      - [ -0.50000000005243,  0.00000000000000 ]
      - [  0.28867513462175,  0.00000000000001 ]
      - [ -0.40824829038060, -0.00000000000305 ]
    - # atom 2
      - [  0.50000000005302, -0.00000004253219 ]
      - [ -0.28867513462209,  0.00000002455598 ]
      - [  0.40824829037964, -0.00000003473031 ]

- q-position: [    0.0531915,    0.0000000,    0.0531915 ]
  distance:    0.0300875
  band:
  - # 1
    frequency:    3.6133614508
    eigenvector:
    - # atom 1
      - [  0.33438809340078, -0.00000000000000 ]
      - [  0.19297184277563, -0.42923901234338 ]
      - [ -0.27308840384022, -0.30351781637590 ]
    - # atom 2
      - [  0.31469861057012,  0.00000387969586 ]
      - [  0.18160418906593, -0.44864725769171 ]
      - [ -0.25701195574822, -0.31724626991112 ]
  - # 2
    frequency:    3.6133614509
    eigenvector:
    - # atom 1
      - [  0.37173189665730,  0.00000000000000 ]
      - [  0.21469796223706,  0.38611810350833 ]
      - [ -0.30346234896222,  0.27302672932284 ]
    - # atom 2
      - [  0.38854186965549, -0.00000355342873 ]
      - [  0.22440313385598,  0.36338059505746 ]
      - [ -0.31718768451680,  0.25695323495475 ]
  - # 3
    frequency:    5.3633315948
    eigenvector:
    - # atom 1
      - [  0.50000000000102, -0.00000000000000 ]
      - [ -0.28867513459210,  0.00000000000001 ]
      - [  0.40824829046453,  0.00000000000383 ]
    - # atom 2
      - [  0.50000000000050, -0.00000004726065 ]
      - [ -0.28867513459179,  0.00000002728595 ]
      - [  0.40824829046539, -0.00000003858447 ]
  - # 4
    frequency:   39.4957600032
    eigenvector:
    - # atom 1
      - [ -0.01326539222656,  0.00000000000000 ]
      - [ -0.00801405027592,  0.57714693064645 ]
      - [  0.01057993180150,  0.40810450849980 ]
    - # atom 2
      - [ -0.01262380289859, -0.00001592438967 ]
      - [ -0.00693361429393, -0.57717531091040 ]
      - [  0.01055813217218, -0.40810507306083 ]
  - # 5
    frequency:   39.4957600034
    eigenvector:
    - # atom 1
      - [  0.49982399834828,  0.00000000000000 ]
      - [  0.28856409111294,  0.01531755264363 ]
      - [ -0.40811125304832,  0.01083114534528 ]
    - # atom 2
      - [ -0.49984061390126, -0.00000037541914 ]
      - [ -0.28857369536791,  0.01457650381054 ]
      - [  0.40812481162632,  0.01030760448291 ]
  - # 6
    frequency:   39.7642627792
    eigenvector:
    - # atom 1
      - [ -0.50000000004255,  0.00000000000000 ]
      - [  0.28867513461606,  0.00000000000001 ]
      - [ -0.40824829039673, -0.00000000000276 ]
    - # atom 2
      - [  0.50000000004314, -0.00000004725849 ]
      - [ -0.28867513461640,  0.00000002728471 ]
      - [  0.40824829039576, -0.00000003858904 ]

- q-position: [    0.0585106,    0.0000000,    0.0585106 ]
  distance:    0.0330963
  band:
  - # 1
    frequency:    3.9713221110
    eigenvector:
    - # atom 1
      - [  0.33263348070613, -0.00000000000000 ]
      - [  0.19224110018192, -0.43105287993448 ]
      - [ -0.27145616398471, -0.30480041444948 ]
    - # atom 2
      - [  0.31078983440388, -0.00000967225757 ]
      - [  0.17962930023766, -0.45227342572825 ]
      - [ -0.25362115946797, -0.31979376023374 ]
  - # 2
    frequency:    3.9713221110
    eigenvector:
    - # atom 1
      - [  0.37330278262286,  0.00000000000000 ]
      - [  0.21535264335157,  0.38409201992477 ]
      - [ -0.30492335403627,  0.27159407188190 ]
    - # atom 2
      - [  0.39167547620753,  0.00000854900041 ]
      - [  0.22596044347226,  0.35887408311450 ]
      - [ -0.31992436888007,  0.25375182741264 ]
  - # 3
    frequency:    5.8933705112
    eigenvector:
    - # atom 1
      - [  0.50000000000102, -0.00000000000000 ]
      - [ -0.28867513459210,  0.00000000000001 ]
      - [  0.40824829046453,  0.00000000000351 ]
    - # atom 2
      - [  0.50000000000049, -0.00000005198672 ]
      - [ -0.28867513459179,  0.00000003001454 ]
      - [  0.40824829046539, -0.00000004244361 ]
  - # 4
    frequency:   39.4690452942
    eigenvector:
    - # atom 1
      - [ -0.01464706363406,  0.00000000000000 ]
      - [ -0.00862630971414,  0.57710246561591 ]
      - [  0.01183919397121,  0.40807306695728 ]
    - # atom 2
      - [ -0.01389589328131, -0.00000839084974 ]
      - [ -0.00785331085865, -0.57713207768928 ]
      - [  0.01146579466677, -0.40808372920349 ]
  - # 5
    frequency:   39.4690452944
    eigenvector:
    - # atom 1
      - [  0.49978541744430,  0.00000000000000 ]
      - [  0.28854626840845,  0.01691297153152 ]
      - [ -0.40807660382138,  0.01195927685972 ]
    - # atom 2
      - [ -0.49980686674485, -0.00000019398178 ]
      - [ -0.28855865860829,  0.01604548561315 ]
      - [  0.40809411254641,  0.01134610926249 ]
  - # 6
    frequency:   39.7927102843
    eigenvector:
    - # atom 1
      - [ -0.50000000003525,  0.00000000000000 ]
      - [  0.28867513461184,  0.00000000000001 ]
      - [ -0.40824829040865, -0.00000000000253 ]
    - # atom 2
      - [  0.50000000003584, -0.00000005198475 ]
      - [ -0.28867513461218,  0.00000003001342 ]
      - [  0.40824829040768, -0.00000004244778 ]

- q-position: [    0.0638298,    0.0000000,    0.0638298 ]
  distance:    0.0361050
  band:
  - # 1
    frequency:    4.3283223715
    eigenvector:
    - # atom 1
      - [  0.33069684166554, -0.00000000000000 ]
      - [  0.19095080106149, -0.43303517720138 ]
      - [ -0.26999665451002, -0.30620211028902 ]
    - # atom 2
      - [  0.30665111566334, -0.00000127178816 ]
      - [  0.17706789834889, -0.45601987549136 ]
      - [ -0.25036346956145, -0.32245318869822 ]
  - # 2
    frequency:    4.3283223716
    eigenvector:
    - # atom 1