  54   54
1 1
    47.435499999999983    -0.000000000000001    -0.000000000000000
    -0.000000000000001    47.435499999999962    -0.000000000000008
    -0.000000000000001    -0.000000000000005    47.435499999999976
1 2
    -3.391771820282659    -0.821059386226210    -0.580576659759769
     0.770167361764719     0.953544286579676     0.748921403316006
     0.544590564131317     0.748921403283999     0.423976883702984
1 3
    -3.391771820282660     0.821059386226210     0.580576659759769
    -0.770167361764719     0.953544286579676     0.748921403316006
    -0.544590564131317     0.748921403283999     0.423976883702984
1 4
    -0.154821633167883    -1.098686700108752     0.358296630820186
    -2.689913448152188    -2.283405900561652    -0.877254837861628
     0.920880242814675     0.097168561600900     0.423976883729537
1 5
    -0.022737784732013    -0.000000000000000    -0.000000000000000
     0.000000000000000    -0.022737784732012     0.000000000000000
    -0.000000000000000    -0.000000000002076    -0.149895305535975
1 6
    -0.154821633167883     1.098686700108752    -0.358296630820186
     2.689913448152188    -2.283405900561652    -0.877254837861628
    -0.920880242814675     0.097168561600900     0.423976883729537
1 7
    -0.110747847122275    -2.664467435820935     0.938873290579954
    -1.073240687908720    -2.327479686590840     0.128333434545622
     0.376289678644384    -0.846089964804409     0.423976883713117
1 8
    -0.110747847122275     2.664467435820935    -0.938873290579954
     1.073240687908720    -2.327479686590840     0.128333434545622
    -0.376289678644384    -0.846089964804410     0.423976883713117
1 9
    -0.027477854229973     0.000000000000000    -0.000000000000000
     0.000000000000000    -0.027477854229973     0.000000000000000
    -0.000000000000000    -0.000000000002055    -0.153343441540054
1 10
    -0.154821633167883    -0.028423596956672    -1.155283965023558
    -0.028423596938638    -0.122000890491533    -0.667003508206561
    -2.843034800874636    -1.641426907603092    -1.737428126340582
1 11
    -0.022737784732013    -0.000000000000000    -0.000000000000000
    -0.000000000000000    -0.135766692112660     0.039961753440335
     0.000000000000000     0.039961753440703    -0.036866398155328
1 12
    -0.154821633167883     0.028423596956672     1.155283965023558
     0.028423596938638    -0.122000890491533    -0.667003508206561
     2.843034800874636    -1.641426907603092    -1.737428126340582
1 13
    -0.107509465267987     0.048942952576952     0.034607893658594
     0.048942952577818    -0.050995011577664    -0.019980876720167
     0.034607893657728    -0.019980876719314    -0.036866398154349
1 14
    -0.107509465267987    -0.048942952576952    -0.034607893658594
    -0.048942952577818    -0.050995011577664    -0.019980876720167
    -0.034607893657728    -0.019980876719314    -0.036866398154349
1 15
     0.100640737141285     0.000000000000000    -0.000000000000000
     0.000000000000000    -0.191519763803343    -0.214854099130289
    -0.000000000000000    -0.214854099121107    -0.039594973337942
1 16
    -0.105590519137022    -0.000000000000000    -0.000000000000000
    -0.000000000000000    -0.171232004489722     1.334007016413123
    -0.000000000000000     3.282853815127854    -1.737428126373256
1 17
    -0.118479638564555     0.126509207893811    -0.186069107951330
     0.126509207900548     0.027600611907759     0.107427049565144
    -0.186069107953033     0.107427049560696    -0.039594973343204
1 18
    -0.118479638564555    -0.126509207893811     0.186069107951330
    -0.126509207900548     0.027600611907759     0.107427049565144
     0.186069107953033     0.107427049560696    -0.039594973343204
1 19
    -0.110747847122275    -0.002977584746671    -2.825041753073236
    -0.002977584700629    -0.107309628492072    -1.631038616632611
    -1.137290917213885    -0.656615217218358    -1.796193174385651
1 20
    -0.110747847122275     0.002977584746671     2.825041753073236
     0.002977584700629    -0.107309628492072    -1.631038616632611
     1.137290917213886    -0.656615217218358    -1.796193174385651
1 21
    -0.027477854229973     0.000000000000000    -0.000000000000000
     0.000000000000000    -0.139358376282733     0.039555737913944
    -0.000000000000000     0.039555737914309    -0.041462919487294
1 22
    -0.105590519137022    -0.000000000000000    -0.000000000000000
    -0.000000000000000    -0.112466956397428     3.262077233265223
    -0.000000000000000     1.313230434354069    -1.796193174465550
1 23
    -0.118479638564555    -0.133257901364310     0.181297061034171
    -0.133257901371167     0.035393331891481     0.104671906992897
     0.181297061035993     0.104671906988280    -0.047387693326926
1 24
    -0.118479638564555     0.133257901364310    -0.181297061034171
     0.133257901371167     0.035393331891481     0.104671906992897
    -0.181297061035993     0.104671906988280    -0.047387693326926
1 25
    -0.111388245770027     0.048445687143308     0.034256273898414
     0.048445687144165    -0.055447984743647    -0.019777868956972
     0.034256273897556    -0.019777868956127    -0.041462919486326
1 26
     0.112329817116935    -0.000000000000000     0.000000000000000
     0.000000000000000    -0.195416123795136    -0.209343813985794
     0.000000000000000    -0.209343813976847    -0.047387693321798
1 27
    -0.111388245770027    -0.048445687143308    -0.034256273898414
    -0.048445687144165    -0.055447984743647    -0.019777868956972
    -0.034256273897556    -0.019777868956127    -0.041462919486326
1 28
     0.284889000000000    -0.000000000000000    -0.000000000000000
    -0.000000000000000     0.284889000000000    -0.000000000000000
    -0.000000000000000    -0.000000000000000     0.284889000000000
1 29
     0.075814523644496    -0.042343383691167    -0.029941293746529
    -0.042629508602820     0.192117867917703     0.132366853164639
    -0.030143614610538     0.132366853158982     0.098520368437800
1 30
     0.075814523644496     0.042343383691167     0.029941293746529
     0.042629508602820     0.192117867917703     0.132366853164639
     0.030143614610538     0.132366853158982     0.098520368437800
1 31
     0.126247690168178    -0.071747110868054     0.099662410584641
    -0.071460985960875     0.141684701390356    -0.092113347589365
     0.099561250153232    -0.092288562595795     0.098520368441466
1 32
    -6.965396882833204     0.000000000000000    -0.000000000000000
     0.000000000000000    -6.965396882833202     0.000000000000003
    -0.000000000000000    -0.000000000136595   -15.330726234333580
1 33
     0.126247690168178     0.071747110868054    -0.099662410584641
     0.071460985960875     0.141684701390356    -0.092113347589365
    -0.099561250153232    -0.092288562595795     0.098520368441466
1 34
     0.199836373527383    -0.028974539810543     0.129603704331170
    -0.029260664724411     0.068096018031998    -0.040253505575274
     0.129704864763777    -0.040078290564923     0.098520368440619
1 35
     0.199836373527383     0.028974539810543    -0.129603704331170
     0.029260664724411     0.068096018031998    -0.040253505575274
    -0.129704864763777    -0.040078290564923     0.098520368440619
1 36
    -0.104157981374724     0.000000000000000    -0.000000000000000
    -0.000000000000000    -0.104157981374724     0.000000000000000
     0.000000000000000     0.000000000001324    -0.023061212250553
1 37
     0.126247690168178     0.070046918178724    -0.100864628364595
     0.070046918182419     0.045364476031363    -0.058234220338862
    -0.100561147068397    -0.058059005326006     0.194840593800459
1 38
    -6.965396882833204     0.000000000000000    -0.000000000000000
    -0.000000000000000   -14.401245195235049     2.628969382843124
     0.000000000000000     2.628969382867367    -7.894877921931728
1 39
     0.126247690168178    -0.070046918178724     0.100864628364595
    -0.070046918182419     0.045364476031363    -0.058234220338862
     0.100561147068397    -0.058059005326006     0.194840593800459
1 40
   -12.542283117166789     3.219816768622514     2.276754271280355
     3.219816768679488    -8.824358960965860    -1.314484691421560
     2.276754271223341    -1.314484691365384    -7.894877921867336
1 41
   -12.542283117166788    -3.219816768622514    -2.276754271280355
    -3.219816768679487    -8.824358960965860    -1.314484691421560
    -2.276754271223341    -1.314484691365384    -7.894877921867337
1 42
    -0.368224114391594     0.000000000000000     0.000000000000000
    -0.000000000000000    -0.183128718543044    -0.327205250503127
     0.000000000000000    -0.327205250489144     0.048240332934638
1 43
     0.004922868964381     0.000000000000000     0.000000000000000
    -0.000000000000000     0.166689297238012     0.116468440677723
     0.000000000000000     0.116118010657354     0.194840593797607
1 44
    -0.229402567501174    -0.080148657469959    -0.283368059183216
    -0.080148657467676    -0.321950265425449     0.163602625251564
    -0.283368059181355     0.163602625252506     0.048240332926623
1 45
    -0.229402567501174     0.080148657469959     0.283368059183216
     0.080148657467676    -0.321950265425449     0.163602625251564
     0.283368059181355     0.163602625252506     0.048240332926623
1 46
     0.199836373527383     0.112533364325346    -0.070518692888538
     0.112533364329788     0.069894037151384    -0.040713986322693
    -0.070822174187383    -0.040889201329583     0.096722349321233
1 47
     0.199836373527383    -0.112533364325346     0.070518692888538
    -0.112533364329788     0.069894037151384    -0.040713986322693
     0.070822174187383    -0.040889201329583     0.096722349321233
1 48
    -0.104157981374724    -0.000000000000000    -0.000000000000000
    -0.000000000000000    -0.032071964375877    -0.025486255724851
    -0.000000000000000    -0.025486255725086    -0.095147229249400
1 49
     0.004922868964381    -0.000000000000000    -0.000000000000000
    -0.000000000000000     0.264807541716380     0.081427972645386
     0.000000000000000     0.081778402657298     0.096722349319238
1 50
    -0.229402567501174    -0.293878187444133     0.018891140797582
    -0.293878187453035     0.109938733763981     0.010906805224942
     0.018891140802343     0.010906805216542    -0.383648666262806
1 51
    -0.229402567501174     0.293878187444133    -0.018891140797582
     0.293878187453035     0.109938733763981     0.010906805224942
    -0.018891140802343     0.010906805216542    -0.383648666262806
1 52
    -0.050093468625276    -0.031214160989403    -0.022071744904745
    -0.031214160989956    -0.086136477124700     0.012743127862426
    -0.022071744904192     0.012743127861881    -0.095147229250024
1 53
     0.279609384396291    -0.000000000000000    -0.000000000000000
     0.000000000000000    -0.399073218134019    -0.021813610449885
    -0.000000000000000    -0.021813610448952    -0.383648666262272
1 54
    -0.050093468625276     0.031214160989403     0.022071744904745
     0.031214160989956    -0.086136477124700     0.012743127862426
     0.022071744904192     0.012743127861881    -0.095147229250024
2 1
    -3.391771820282660     0.821059386226210     0.580576659759769
    -0.770167361764719     0.953544286579676     0.748921403316006
    -0.544590564131317     0.748921403283999     0.423976883702984
2 2
    47.435499999999983    -0.000000000000000    -0.000000000000000
    -0.000000000000001    47.435499999999962    -0.000000000000006
    -0.000000000000001    -0.000000000000004    47.435499999999976
2 3
    -3.391771820282659    -0.821059386226210    -0.580576659759769
     0.770167361764719     0.953544286579676     0.748921403316006
     0.544590564131317     0.748921403283999     0.423976883702984
2 4
    -0.154821633167883     1.098686700108752    -0.358296630820186
     2.689913448152188    -2.283405900561652    -0.877254837861628
    -0.920880242814675     0.097168561600900     0.423976883729537
2 5
    -0.154821633167883    -1.098686700108752     0.358296630820186
    -2.689913448152188    -2.283405900561652    -0.877254837861628
     0.920880242814675     0.097168561600900     0.423976883729537
2 6
    -0.022737784732013    -0.000000000000000     0.000000000000000
     0.000000000000000    -0.022737784732012     0.000000000000000
    -0.000000000000000    -0.000000000002076    -0.149895305535975
2 7
    -0.027477854229973    -0.000000000000000     0.000000000000000
     0.000000000000000    -0.027477854229973     0.000000000000000
    -0.000000000000000    -0.000000000002055    -0.153343441540054
2 8
    -0.110747847122275    -2.664467435820935     0.938873290579954
    -1.073240687908720    -2.327479686590840     0.128333434545622
     0.376289678644384    -0.846089964804409     0.423976883713117
2 9
    -0.110747847122275     2.664467435820935    -0.938873290579954
     1.073240687908720    -2.327479686590840     0.128333434545622
    -0.376289678644384    -0.846089964804410     0.423976883713117
2 10
    -0.154821633167883     0.028423596956672     1.155283965023558
     0.028423596938638    -0.122000890491533    -0.667003508206561
     2.843034800874636    -1.641426907603092    -1.737428126340582
2 11
    -0.154821633167883    -0.028423596956672    -1.155283965023558
    -0.028423596938638    -0.122000890491533    -0.667003508206561
    -2.843034800874636    -1.641426907603092    -1.737428126340582
2 12
    -0.022737784732013    -0.000000000000000     0.000000000000000
    -0.000000000000000    -0.135766692112660     0.039961753440335
     0.000000000000000     0.039961753440703    -0.036866398155328
2 13
     0.100640737141285     0.000000000000000    -0.000000000000000
     0.000000000000000    -0.191519763803343    -0.214854099130289
    -0.000000000000000    -0.214854099121107    -0.039594973337942
2 14
    -0.107509465267987     0.048942952576952     0.034607893658594
     0.048942952577818    -0.050995011577664    -0.019980876720167
     0.034607893657728    -0.019980876719314    -0.036866398154349
2 15
    -0.107509465267987    -0.048942952576952    -0.034607893658594
    -0.048942952577818    -0.050995011577664    -0.019980876720167
    -0.034607893657728    -0.019980876719314    -0.036866398154349
2 16
    -0.118479638564555    -0.126509207893811     0.186069107951330
    -0.126509207900548     0.027600611907759     0.107427049565144
     0.186069107953033     0.107427049560696    -0.039594973343204
2 17
    -0.105590519137022    -0.000000000000000     0.000000000000000
    -0.000000000000000    -0.171232004489722     1.334007016413123
    -0.000000000000000     3.282853815127854    -1.737428126373256
2 18
    -0.118479638564555     0.126509207893811    -0.186069107951330
     0.126509207900548     0.027600611907759     0.107427049565144
    -0.186069107953033     0.107427049560696    -0.039594973343204
2 19
    -0.027477854229973     0.000000000000000    -0.000000000000000
     0.000000000000000    -0.139358376282733     0.039555737913944
    -0.000000000000000     0.039555737914309    -0.041462919487294
2 20
    -0.110747847122275    -0.002977584746671    -2.825041753073236
    -0.002977584700629    -0.107309628492072    -1.631038616632611
    -1.137290917213885    -0.656615217218358    -1.796193174385651
2 21
    -0.110747847122275     0.002977584746671     2.825041753073236
     0.002977584700629    -0.107309628492072    -1.631038616632611
     1.137290917213886    -0.656615217218358    -1.796193174385651
2 22
    -0.118479638564555     0.133257901364310    -0.181297061034171
     0.133257901371167     0.035393331891481     0.104671906992897
    -0.181297061035993     0.104671906988280    -0.047387693326926
2 23
    -0.105590519137022    -0.000000000000000    -0.000000000000000
    -0.000000000000000    -0.112466956397428     3.262077233265223
    -0.000000000000000     1.313230434354069    -1.796193174465550
2 24
    -0.118479638564555    -0.133257901364310     0.181297061034171
    -0.133257901371167     0.035393331891481     0.104671906992897
     0.181297061035993     0.104671906988280    -0.047387693326926
2 25
    -0.111388245770027    -0.048445687143308    -0.034256273898414
    -0.048445687144165    -0.055447984743647    -0.019777868956972
    -0.034256273897556    -0.019777868956127    -0.041462919486326
2 26
    -0.111388245770027     0.048445687143308     0.034256273898414
     0.048445687144165    -0.055447984743647    -0.019777868956972
     0.034256273897556    -0.019777868956127    -0.041462919486326
2 27
     0.112329817116935    -0.000000000000000     0.000000000000000
     0.000000000000000    -0.195416123795136    -0.209343813985794
     0.000000000000000    -0.209343813976847    -0.047387693321798
2 28
     0.075814523644496     0.042343383691167     0.029941293746529
     0.042629508602820     0.192117867917703     0.132366853164639
     0.030143614610538     0.132366853158982     0.098520368437800
2 29
     0.284889000000000    -0.000000000000000    -0.000000000000000
     0.000000000000000     0.284889000000000    -0.000000000000000
    -0.000000000000000    -0.000000000000000     0.284889000000000
2 30
     0.075814523644496    -0.042343383691167    -0.029941293746529
    -0.042629508602820     0.192117867917703     0.132366853164639
    -0.030143614610538     0.132366853158982     0.098520368437800
2 31
     0.126247690168178     0.071747110868054    -0.099662410584641
     0.071460985960875     0.141684701390356    -0.092113347589365
    -0.099561250153232    -0.092288562595795     0.098520368441466
2 32
     0.126247690168178    -0.071747110868054     0.099662410584641
    -0.071460985960875     0.141684701390356    -0.092113347589365
     0.099561250153232    -0.092288562595795     0.098520368441466
2 33
    -6.965396882833204     0.000000000000000    -0.000000000000000
     0.000000000000000    -6.965396882833202     0.000000000000003
    -0.000000000000000    -0.000000000136595   -15.330726234333580
2 34
    -0.104157981374724     0.000000000000000     0.000000000000000
    -0.000000000000000    -0.104157981374724     0.000000000000000
     0.000000000000000     0.000000000001324    -0.023061212250553
2 35
     0.199836373527383    -0.028974539810543     0.129603704331170
    -0.029260664724411     0.068096018031998    -0.040253505575274
     0.129704864763777    -0.040078290564923     0.098520368440619
2 36
     0.199836373527383     0.028974539810543    -0.129603704331170
     0.029260664724411     0.068096018031998    -0.040253505575274
    -0.129704864763777    -0.040078290564923     0.098520368440619
2 37
     0.126247690168178    -0.070046918178724     0.100864628364595
    -0.070046918182419     0.045364476031363    -0.058234220338862
     0.100561147068397    -0.058059005326006     0.194840593800459
2 38
     0.126247690168178     0.070046918178724    -0.100864628364595
     0.070046918182419     0.045364476031363    -0.058234220338862
    -0.100561147068397    -0.058059005326006     0.194840593800459
2 39
    -6.965396882833204     0.000000000000000    -0.000000000000000
    -0.000000000000000   -14.401245195235049     2.628969382843124
     0.000000000000000     2.628969382867366    -7.894877921931728
2 40
    -0.368224114391594     0.000000000000000     0.000000000000000
    -0.000000000000000    -0.183128718543044    -0.327205250503127
     0.000000000000000    -0.327205250489144     0.048240332934638
2 41
   -12.542283117166789     3.219816768622514     2.276754271280355
     3.219816768679488    -8.824358960965860    -1.314484691421561
     2.276754271223341    -1.314484691365384    -7.894877921867336
2 42
   -12.542283117166788    -3.219816768622514    -2.276754271280355
    -3.219816768679487    -8.824358960965860    -1.314484691421560
    -2.276754271223341    -1.314484691365384    -7.894877921867337
2 43
    -0.229402567501174     0.080148657469959     0.283368059183216
     0.080148657467676    -0.321950265425449     0.163602625251564
     0.283368059181355     0.163602625252506     0.048240332926624
2 44
     0.004922868964381     0.000000000000000     0.000000000000000
    -0.000000000000000     0.166689297238012     0.116468440677723
     0.000000000000000     0.116118010657354     0.194840593797607
2 45
    -0.229402567501174    -0.080148657469959    -0.283368059183216
    -0.080148657467676    -0.321950265425449     0.163602625251564
    -0.283368059181355     0.163602625252506     0.048240332926624
2 46
    -0.104157981374724    -0.000000000000000    -0.000000000000000
    -0.000000000000000    -0.032071964375877    -0.025486255724851
     0.000000000000000    -0.025486255725086    -0.095147229249400
2 47
     0.199836373527383     0.112533364325346    -0.070518692888538
     0.112533364329788     0.069894037151384    -0.040713986322693
    -0.070822174187383    -0.040889201329583     0.096722349321233
2 48
     0.199836373527383    -0.112533364325346     0.070518692888538
    -0.112533364329788     0.069894037151384    -0.040713986322693
     0.070822174187383    -0.040889201329583     0.096722349321233
2 49
    -0.229402567501174     0.293878187444133    -0.018891140797582
     0.293878187453035     0.109938733763981     0.010906805224942
    -0.018891140802343     0.010906805216542    -0.383648666262806
2 50
     0.004922868964381    -0.000000000000000    -0.000000000000000
    -0.000000000000000     0.264807541716380     0.081427972645386
     0.000000000000000     0.081778402657298     0.096722349319238
2 51
    -0.229402567501174    -0.293878187444133     0.018891140797582
    -0.293878187453035     0.109938733763981     0.010906805224942
     0.018891140802343     0.010906805216542    -0.383648666262806
2 52
    -0.050093468625276     0.031214160989403     0.022071744904745
     0.031214160989956    -0.086136477124700     0.012743127862426
     0.022071744904192     0.012743127861881    -0.095147229250024
2 53
    -0.050093468625276    -0.031214160989403    -0.022071744904745
    -0.031214160989956    -0.086136477124700     0.012743127862426
    -0.022071744904192     0.012743127861881    -0.095147229250024
2 54
     0.279609384396291     0.000000000000000    -0.000000000000000
     0.000000000000000    -0.399073218134019    -0.021813610449885
    -0.000000000000000    -0.021813610448952    -0.383648666262272
3 1
    -3.391771820282659    -0.821059386226210    -0.580576659759769
     0.770167361764719     0.953544286579676     0.748921403316006
     0.544590564131317     0.748921403283999     0.423976883702984
3 2
    -3.391771820282660     0.821059386226210     0.580576659759769
    -0.770167361764719     0.953544286579676     0.748921403316006
    -0.544590564131317     0.748921403283999     0.423976883702984
3 3
    47.435499999999983    -0.000000000000000    -0.000000000000000
    -0.000000000000001    47.435499999999962    -0.000000000000006
    -0.000000000000001    -0.000000000000004    47.435499999999976
3 4
    -0.022737784732013    -0.000000000000000     0.000000000000000
     0.000000000000000    -0.022737784732012     0.000000000000000
    -0.000000000000000    -0.000000000002076    -0.149895305535975
3 5
    -0.154821633167883     1.098686700108752    -0.358296630820186
     2.689913448152188    -2.283405900561652    -0.877254837861628
    -0.920880242814675     0.097168561600900     0.423976883729537
3 6
    -0.154821633167883    -1.098686700108752     0.358296630820186
    -2.689913448152188    -2.283405900561652    -0.877254837861628
     0.920880242814675     0.097168561600900     0.423976883729537
3 7
    -0.110747847122275     2.664467435820935    -0.938873290579954
     1.073240687908720    -2.327479686590840     0.128333434545622
    -0.376289678644384    -0.846089964804410     0.423976883713117
3 8
    -0.027477854229973    -0.000000000000000     0.000000000000000
     0.000000000000000    -0.027477854229973     0.000000000000000
    -0.000000000000000    -0.000000000002055    -0.153343441540054
3 9
    -0.110747847122275    -2.664467435820935     0.938873290579954
    -1.073240687908720    -2.327479686590840     0.128333434545622
     0.376289678644384    -0.846089964804409     0.423976883713117
3 10
    -0.022737784732013    -0.000000000000000     0.000000000000000
    -0.000000000000000    -0.135766692112660     0.039961753440335
     0.000000000000000     0.039961753440703    -0.036866398155328
3 11
    -0.154821633167883     0.028423596956672     1.155283965023558
     0.028423596938638    -0.122000890491533    -0.667003508206561
     2.843034800874636    -1.641426907603092    -1.737428126340582
3 12
    -0.154821633167883    -0.028423596956672    -1.155283965023558
    -0.028423596938638    -0.122000890491533    -0.667003508206561
    -2.843034800874636    -1.641426907603092    -1.737428126340582
3 13
    -0.107509465267987    -0.048942952576952    -0.034607893658594
    -0.048942952577818    -0.050995011577664    -0.019980876720167
    -0.034607893657728    -0.019980876719314    -0.036866398154349
3 14
     0.100640737141285     0.000000000000000    -0.000000000000000
     0.000000000000000    -0.191519763803343    -0.214854099130289
    -0.000000000000000    -0.214854099121107    -0.039594973337942
3 15
    -0.107509465267987     0.048942952576952     0.034607893658594
     0.048942952577818    -0.050995011577664    -0.019980876720167
     0.034607893657728    -0.019980876719314    -0.036866398154349
3 16
    -0.118479638564555     0.126509207893811    -0.186069107951330
     0.126509207900548     0.027600611907759     0.107427049565144
    -0.186069107953033     0.107427049560696    -0.039594973343204
3 17
    -0.118479638564555    -0.126509207893811     0.186069107951330
    -0.126509207900548     0.027600611907759     0.107427049565144
     0.186069107953033     0.107427049560696    -0.039594973343204
3 18
    -0.105590519137022    -0.000000000000000     0.000000000000000
    -0.000000000000000    -0.171232004489722     1.334007016413123
    -0.000000000000000     3.282853815127854    -1.737428126373256
3 19
    -0.110747847122275     0.002977584746671     2.825041753073236
     0.002977584700629    -0.107309628492072    -1.631038616632611
     1.137290917213886    -0.656615217218358    -1.796193174385651
3 20
    -0.027477854229973     0.000000000000000    -0.000000000000000
     0.000000000000000    -0.139358376282733     0.039555737913944
    -0.000000000000000     0.039555737914309    -0.041462919487294
3 21
    -0.110747847122275    -0.002977584746671    -2.825041753073236
    -0.002977584700629    -0.107309628492072    -1.631038616632611
    -1.137290917213885    -0.656615217218358    -1.796193174385651
3 22
    -0.118479638564555    -0.133257901364310     0.181297061034171
    -0.133257901371167     0.035393331891481     0.104671906992897
     0.181297061035993     0.104671906988280    -0.047387693326926
3 23
    -0.118479638564555     0.133257901364310    -0.181297061034171
     0.133257901371167     0.035393331891481     0.104671906992897
    -0.181297061035993     0.104671906988280    -0.047387693326926
3 24
    -0.105590519137022    -0.000000000000000    -0.000000000000000
    -0.000000000000000    -0.112466956397428     3.262077233265223
    -0.000000000000000     1.313230434354069    -1.796193174465550
3 25
     0.112329817116935    -0.000000000000000     0.000000000000000
     0.000000000000000    -0.195416123795136    -0.209343813985794
     0.000000000000000    -0.209343813976847    -0.047387693321798
3 26
    -0.111388245770027    -0.048445687143308    -0.034256273898414
    -0.048445687144165    -0.055447984743647    -0.019777868956972
    -0.034256273897556    -0.019777868956127    -0.041462919486326
3 27
    -0.111388245770027     0.048445687143308     0.034256273898414
     0.048445687144165    -0.055447984743647    -0.019777868956972
     0.034256273897556    -0.019777868956127    -0.041462919486326
3 28
     0.075814523644496    -0.042343383691167    -0.029941293746529
    -0.042629508602820     0.192117867917703     0.132366853164639
    -0.030143614610538     0.132366853158982     0.098520368437800
3 29
     0.075814523644496     0.042343383691167     0.029941293746529
     0.042629508602820     0.192117867917703     0.132366853164639
     0.030143614610538     0.132366853158982     0.098520368437800
3 30
     0.284889000000000    -0.000000000000000    -0.000000000000000
     0.000000000000000     0.284889000000000    -0.000000000000000
    -0.000000000000000    -0.000000000000000     0.284889000000000
3 31
    -6.965396882833204     0.000000000000000    -0.000000000000000
     0.000000000000000    -6.965396882833202     0.000000000000003
    -0.000000000000000    -0.000000000136595   -15.330726234333580
3 32
     0.126247690168178     0.071747110868054    -0.099662410584641
     0.071460985960875     0.141684701390356    -0.092113347589365
    -0.099561250153232    -0.092288562595795     0.098520368441466
3 33
     0.126247690168178    -0.071747110868054     0.099662410584641
    -0.071460985960875     0.141684701390356    -0.092113347589365
     0.099561250153232    -0.092288562595795     0.098520368441466
3 34
     0.199836373527383     0.028974539810543    -0.129603704331170
     0.029260664724411     0.068096018031998    -0.040253505575274
    -0.129704864763777    -0.040078290564923     0.098520368440619
3 35
    -0.104157981374724     0.000000000000000     0.000000000000000
    -0.000000000000000    -0.104157981374724     0.000000000000000
     0.000000000000000     0.000000000001324    -0.023061212250553
3 36
     0.199836373527383    -0.028974539810543     0.129603704331170
    -0.029260664724411     0.068096018031998    -0.040253505575274
     0.129704864763777    -0.040078290564923     0.098520368440619
3 37
    -6.965396882833204     0.000000000000000    -0.000000000000000
    -0.000000000000000   -14.401245195235049     2.628969382843124
     0.000000000000000     2.628969382867366    -7.894877921931728
3 38
     0.126247690168178    -0.070046918178724     0.100864628364595
    -0.070046918182419     0.045364476031363    -0.058234220338862