54   
1    

1    
  0.1000000000000000   0.0000000000000000   0.0000000000000000
  -4.7435501207   -0.4555189825   -0.3221009891
   0.3850398793    0.0833312175    0.0589241109
   0.2953338793   -0.0806367825   -0.0570187891
   0.0097317193    0.1076370175   -0.0390865891
   0.0022506693   -0.0047777625    0.0042828309
   0.0204830793   -0.1113669825    0.0319149109
   0.0125991793    0.2660790175   -0.0950766891
   0.0093448693   -0.2657669825    0.0934460109
   0.0027894893   -0.0003581525    0.0037147309
   0.0097317193   -0.0009722905    0.1145100109
   0.0022506693    0.0024453075   -0.0059321291
   0.0204830793   -0.0070325225   -0.1156359891
   0.0099805493   -0.0052744225   -0.0037295891
   0.0115670793    0.0044610775    0.0031544509
  -0.0100195207   -0.0028133825   -0.0019893591
   0.0105036793    0.0026685075   -0.0024114191
   0.0156960793   -0.0162842825    0.0213705109
   0.0081297793    0.0091442775   -0.0155942891
   0.0125991793   -0.0009460485    0.2825540109
   0.0093448693   -0.0004872825   -0.2817159891
   0.0027894893    0.0033828975   -0.0015759191
   0.0105036793   -0.0013840025    0.0033197009
   0.0156960793    0.0147202175   -0.0224764891
   0.0081297793   -0.0116542825    0.0138194109
   0.0114551793   -0.0046343525   -0.0032769791
  -0.0115381207   -0.0052295125   -0.0036978291
   0.0107385793    0.0051513775    0.0036425709
  -0.0284890207   -0.0000945423   -0.0000668527
  -0.0120652207    0.0036609775    0.0025887009
  -0.0035450607   -0.0029281425   -0.0020705091
  -0.0125811207    0.0021481175   -0.0105393891
   0.7033108793    0.0313164175    0.0273010109
  -0.0117549207   -0.0119318825    0.0087091109
  -0.0194193207   -0.0003027905   -0.0111965891
  -0.0213584207   -0.0068236225    0.0152121109
   0.0104530793   -0.0000538542   -0.0054785991
  -0.0125811207   -0.0092205725    0.0055383809
   0.7033108793    0.0361784175    0.0204250109
  -0.0117549207    0.0042337275   -0.0141525891
   0.9310038793   -0.1171159825   -0.0828133891
   1.5639098793    0.5424850175    0.3835950109
   0.0331326793    0.0001955145    0.0001382489
  -0.0003723527    0.0037101975    0.0041627609
   0.0227919793    0.0066183475    0.0301254109
   0.0248443793   -0.0126578825   -0.0266930891
  -0.0194193207   -0.0106571825    0.0034467209
  -0.0213584207    0.0120675175   -0.0115040891
   0.0104530793   -0.0051832225    0.0017754209
  -0.0003723527    0.0051614175    0.0021104109
   0.0227919793    0.0306086175   -0.0038019691
   0.0248443793   -0.0293857825   -0.0030363191
   0.0031134293    0.0052700575    0.0037264909
  -0.0277836207   -0.0002953715   -0.0002088601
   0.0068302193   -0.0008863995   -0.0006267801
