phonopy:
  version: "2.19.1"
  frequency_unit_conversion_factor: 15.633302
  symmetry_tolerance: 1.00000e-05

space_group:
  type: "Fd-3m"
  number: 227
  Hall_symbol: "F 4d 2 3 -1d"

supercell_matrix:
- [   3,   0,   0 ]
- [   0,   3,   0 ]
- [   0,   0,   3 ]

primitive_cell:
  lattice:
  - [     2.500175429000000,     0.000000000000000,     0.000000000000000 ] # a
  - [     1.250087714500000,     2.165215435399999,     0.000000000000000 ] # b
  - [     1.250087714500000,     0.721738478500000,     2.041384689500000 ] # c
  points:
  - symbol: C  # 1
    coordinates: [  0.999997454617902,  0.999997454587760,  0.999997454570897 ]
    mass: 12.010700
  - symbol: C  # 2
    coordinates: [  0.249997596000766,  0.249997596026479,  0.249997596006757 ]
    mass: 12.010700
  reciprocal_lattice: # without 2pi
  - [     0.399971933329483,    -0.230923903379448,    -0.163287858011358 ] # a*
  - [     0.000000000000000,     0.461847806758897,    -0.163287858022670 ] # b*
  - [     0.000000000000000,     0.000000000000000,     0.489863574045386 ] # c*

unit_cell:
  lattice:
  - [     2.500175429000000,     0.000000000000000,     0.000000000000000 ] # a
  - [     1.250087714500000,     2.165215435400000,     0.000000000000000 ] # b
  - [     1.250087714500000,     0.721738478500000,     2.041384689500000 ] # c
  points:
  - symbol: C  # 1
    coordinates: [  0.999997454617902,  0.999997454587760,  0.999997454570897 ]
    mass: 12.010700
    reduced_to: 1
  - symbol: C  # 2
    coordinates: [  0.249997596000766,  0.249997596026479,  0.249997596006757 ]
    mass: 12.010700
    reduced_to: 2

supercell:
  lattice:
  - [     7.500526287000000,     0.000000000000000,     0.000000000000000 ] # a
  - [     3.750263143500000,     6.495646306199999,     0.000000000000000 ] # b
  - [     3.750263143500000,     2.165215435500000,     6.124154068500000 ] # c
  points:
  - symbol: C  # 1
    coordinates: [  0.333332484872634,  0.333332484862587,  0.333332484856965 ]
    mass: 12.010700
    reduced_to: 1
  - symbol: C  # 2
    coordinates: [  0.666665818205967,  0.333332484862587,  0.333332484856965 ]
    mass: 12.010700
    reduced_to: 1
  - symbol: C  # 3
    coordinates: [  0.999999151539301,  0.333332484862587,  0.333332484856965 ]
    mass: 12.010700
    reduced_to: 1
  - symbol: C  # 4
    coordinates: [  0.333332484872634,  0.666665818195920,  0.333332484856965 ]
    mass: 12.010700
    reduced_to: 1
  - symbol: C  # 5
    coordinates: [  0.666665818205967,  0.666665818195920,  0.333332484856965 ]
    mass: 12.010700
    reduced_to: 1
  - symbol: C  # 6
    coordinates: [  0.999999151539301,  0.666665818195920,  0.333332484856965 ]
    mass: 12.010700
    reduced_to: 1
  - symbol: C  # 7
    coordinates: [  0.333332484872634,  0.999999151529253,  0.333332484856965 ]
    mass: 12.010700
    reduced_to: 1
  - symbol: C  # 8
    coordinates: [  0.666665818205967,  0.999999151529253,  0.333332484856965 ]
    mass: 12.010700
    reduced_to: 1
  - symbol: C  # 9
    coordinates: [  0.999999151539301,  0.999999151529253,  0.333332484856965 ]
    mass: 12.010700
    reduced_to: 1
  - symbol: C  # 10
    coordinates: [  0.333332484872634,  0.333332484862587,  0.666665818190299 ]
    mass: 12.010700
    reduced_to: 1
  - symbol: C  # 11
    coordinates: [  0.666665818205967,  0.333332484862587,  0.666665818190299 ]
    mass: 12.010700
    reduced_to: 1
  - symbol: C  # 12
    coordinates: [  0.999999151539301,  0.333332484862587,  0.666665818190299 ]
    mass: 12.010700
    reduced_to: 1
  - symbol: C  # 13
    coordinates: [  0.333332484872634,  0.666665818195920,  0.666665818190299 ]
    mass: 12.010700
    reduced_to: 1
  - symbol: C  # 14
    coordinates: [  0.666665818205967,  0.666665818195920,  0.666665818190299 ]
    mass: 12.010700
    reduced_to: 1
  - symbol: C  # 15
    coordinates: [  0.999999151539301,  0.666665818195920,  0.666665818190299 ]
    mass: 12.010700
    reduced_to: 1
  - symbol: C  # 16
    coordinates: [  0.333332484872634,  0.999999151529253,  0.666665818190299 ]
    mass: 12.010700
    reduced_to: 1
  - symbol: C  # 17
    coordinates: [  0.666665818205967,  0.999999151529253,  0.666665818190299 ]
    mass: 12.010700
    reduced_to: 1
  - symbol: C  # 18
    coordinates: [  0.999999151539301,  0.999999151529253,  0.666665818190299 ]
    mass: 12.010700
    reduced_to: 1
  - symbol: C  # 19
    coordinates: [  0.333332484872634,  0.333332484862587,  0.999999151523632 ]
    mass: 12.010700
    reduced_to: 1
  - symbol: C  # 20
    coordinates: [  0.666665818205967,  0.333332484862587,  0.999999151523632 ]
    mass: 12.010700
    reduced_to: 1
  - symbol: C  # 21
    coordinates: [  0.999999151539301,  0.333332484862587,  0.999999151523632 ]
    mass: 12.010700
    reduced_to: 1
  - symbol: C  # 22
    coordinates: [  0.333332484872634,  0.666665818195920,  0.999999151523632 ]
    mass: 12.010700
    reduced_to: 1
  - symbol: C  # 23
    coordinates: [  0.666665818205967,  0.666665818195920,  0.999999151523632 ]
    mass: 12.010700
    reduced_to: 1
  - symbol: C  # 24
    coordinates: [  0.999999151539301,  0.666665818195920,  0.999999151523632 ]
    mass: 12.010700
    reduced_to: 1
  - symbol: C  # 25
    coordinates: [  0.333332484872634,  0.999999151529253,  0.999999151523632 ]
    mass: 12.010700
    reduced_to: 1
  - symbol: C  # 26
    coordinates: [  0.666665818205967,  0.999999151529253,  0.999999151523632 ]
    mass: 12.010700
    reduced_to: 1
  - symbol: C  # 27
    coordinates: [  0.999999151539301,  0.999999151529253,  0.999999151523632 ]
    mass: 12.010700
    reduced_to: 1
  - symbol: C  # 28
    coordinates: [  0.083332532000255,  0.083332532008826,  0.083332532002252 ]
    mass: 12.010700
    reduced_to: 28
  - symbol: C  # 29
    coordinates: [  0.416665865333589,  0.083332532008826,  0.083332532002252 ]
    mass: 12.010700
    reduced_to: 28
  - symbol: C  # 30
    coordinates: [  0.749999198666922,  0.083332532008826,  0.083332532002252 ]
    mass: 12.010700
    reduced_to: 28
  - symbol: C  # 31
    coordinates: [  0.083332532000255,  0.416665865342160,  0.083332532002252 ]
    mass: 12.010700
    reduced_to: 28
  - symbol: C  # 32
    coordinates: [  0.416665865333589,  0.416665865342160,  0.083332532002252 ]
    mass: 12.010700
    reduced_to: 28
  - symbol: C  # 33
    coordinates: [  0.749999198666922,  0.416665865342160,  0.083332532002252 ]
    mass: 12.010700
    reduced_to: 28
  - symbol: C  # 34
    coordinates: [  0.083332532000255,  0.749999198675493,  0.083332532002252 ]
    mass: 12.010700
    reduced_to: 28
  - symbol: C  # 35
    coordinates: [  0.416665865333589,  0.749999198675493,  0.083332532002252 ]
    mass: 12.010700
    reduced_to: 28
  - symbol: C  # 36
    coordinates: [  0.749999198666922,  0.749999198675493,  0.083332532002252 ]
    mass: 12.010700
    reduced_to: 28
  - symbol: C  # 37
    coordinates: [  0.083332532000255,  0.083332532008826,  0.416665865335586 ]
    mass: 12.010700
    reduced_to: 28
  - symbol: C  # 38
    coordinates: [  0.416665865333589,  0.083332532008826,  0.416665865335586 ]
    mass: 12.010700
    reduced_to: 28
  - symbol: C  # 39
    coordinates: [  0.749999198666922,  0.083332532008826,  0.416665865335586 ]
    mass: 12.010700
    reduced_to: 28
  - symbol: C  # 40
    coordinates: [  0.083332532000255,  0.416665865342160,  0.416665865335586 ]
    mass: 12.010700
    reduced_to: 28
  - symbol: C  # 41
    coordinates: [  0.416665865333589,  0.416665865342160,  0.416665865335586 ]
    mass: 12.010700
    reduced_to: 28
  - symbol: C  # 42
    coordinates: [  0.749999198666922,  0.416665865342160,  0.416665865335586 ]
    mass: 12.010700
    reduced_to: 28
  - symbol: C  # 43
    coordinates: [  0.083332532000255,  0.749999198675493,  0.416665865335586 ]
    mass: 12.010700
    reduced_to: 28
  - symbol: C  # 44
    coordinates: [  0.416665865333589,  0.749999198675493,  0.416665865335586 ]
    mass: 12.010700
    reduced_to: 28
  - symbol: C  # 45
    coordinates: [  0.749999198666922,  0.749999198675493,  0.416665865335586 ]
    mass: 12.010700
    reduced_to: 28
  - symbol: C  # 46
    coordinates: [  0.083332532000255,  0.083332532008826,  0.749999198668919 ]
    mass: 12.010700
    reduced_to: 28
  - symbol: C  # 47
    coordinates: [  0.416665865333589,  0.083332532008826,  0.749999198668919 ]
    mass: 12.010700
    reduced_to: 28
  - symbol: C  # 48
    coordinates: [  0.749999198666922,  0.083332532008826,  0.749999198668919 ]
    mass: 12.010700
    reduced_to: 28
  - symbol: C  # 49
    coordinates: [  0.083332532000255,  0.416665865342160,  0.749999198668919 ]
    mass: 12.010700
    reduced_to: 28
  - symbol: C  # 50
    coordinates: [  0.416665865333589,  0.416665865342160,  0.749999198668919 ]
    mass: 12.010700
    reduced_to: 28
  - symbol: C  # 51
    coordinates: [  0.749999198666922,  0.416665865342160,  0.749999198668919 ]
    mass: 12.010700
    reduced_to: 28
  - symbol: C  # 52
    coordinates: [  0.083332532000255,  0.749999198675493,  0.749999198668919 ]
    mass: 12.010700
    reduced_to: 28
  - symbol: C  # 53
    coordinates: [  0.416665865333589,  0.749999198675493,  0.749999198668919 ]
    mass: 12.010700
    reduced_to: 28
  - symbol: C  # 54
    coordinates: [  0.749999198666922,  0.749999198675493,  0.749999198668919 ]
    mass: 12.010700
    reduced_to: 28

displacements:
- atom:    1
  displacement:
    [   0.1000000000000000,  0.0000000000000000,  0.0000000000000000 ]
