ITEM: TIMESTEP
0
ITEM: NUMBER OF ATOMS
54
ITEM: BOX BOUNDS xy xz yz pp pp pp
0.0000000000000000e+00 1.5001052573999999e+01 3.7502631434999998e+00
0.0000000000000000e+00 8.6608617416999998e+00 3.7502631434999998e+00
0.0000000000000000e+00 6.1241540684999993e+00 2.1652154355000000e+00
ITEM: ATOMS id type x y z fx fy fz
1 1 5.10034 2.88695 2.04138 -4.66618 -0.424686 -0.300298
2 1 7.50051 2.88695 2.04138 0.366454 0.0980531 0.069334
3 1 10.0007 2.88695 2.04138 0.304712 -0.0823506 -0.0582307
4 1 6.25043 5.05216 2.04138 -0.000944296 0.0947304 -0.0183514
5 1 8.7506 5.05216 2.04138 0.00466629 -0.000320068 0.00154755
6 1 11.2508 5.05216 2.04138 0.0121779 -0.0974625 0.0141076
7 1 7.50051 7.21738 2.04138 0.00250394 0.2699 -0.0826908
8 1 10.0007 7.21738 2.04138 0.00806553 -0.292744 0.0824957
9 1 12.5009 7.21738 2.04138 0.00425595 -0.00122751 0.00774798
10 1 6.25043 3.60869 4.08276 -0.000944296 0.014275 0.0954298
11 1 8.7506 3.60869 4.08276 0.00466629 0.00135236 -0.000817614
12 1 11.2508 3.60869 4.08276 0.0121779 -0.0191867 -0.0965911
13 1 7.50051 5.7739 4.08276 0.010905 -0.00224675 -0.00158869
14 1 10.0007 5.7739 4.08276 0.00541638 0.00217624 0.00153883
15 1 12.5009 5.7739 4.08276 -0.00253623 -0.00787525 -0.00556864
16 1 8.7506 7.93912 4.08276 -0.0218067 0.00139017 -0.00538185
17 1 11.2508 7.93912 4.08276 0.00361434 -0.0023257 0.00314492
18 1 13.751 7.93912 4.08276 0.00478495 0.00524701 -0.00793576
19 1 7.50051 4.33042 6.12415 0.00250394 0.012005 0.282028
20 1 10.0007 4.33042 6.12415 0.00806553 -0.0198036 -0.3035
21 1 12.5009 4.33042 6.12415 0.00425595 0.0068957 -0.00373997
22 1 8.7506 6.49564 6.12415 -0.0218067 -0.00461067 0.00310462
23 1 11.2508 6.49564 6.12415 0.00361434 0.00218982 -0.003241
24 1 13.751 6.49564 6.12415 0.00478495 -0.0057329 0.00759218
25 1 10.0007 8.66085 6.12415 0.0108805 -0.00494732 -0.00349829
26 1 12.5009 8.66085 6.12415 -0.00321343 -0.000603728 -0.000426901
27 1 15.001 8.66085 6.12415 0.00553924 -1.74363e-05 -1.23296e-05
28 1 1.25008 0.721732 0.510341 -0.00321373 0.00233517 0.00165121
29 1 3.75025 0.721732 0.510341 -0.0214766 -0.0104756 -0.00740739
30 1 6.25043 0.721732 0.510341 -0.0193739 0.00359461 0.00254177
31 1 2.50016 2.88695 0.510341 -0.0176342 -0.0074323 -0.00491649
32 1 5.00034 2.88695 0.510341 0.712321 0.0362036 0.0415397
33 1 7.50051 2.88695 0.510341 -0.0167771 0.00822833 0.0128096
34 1 3.75025 5.05216 0.510341 -0.00342251 -0.00283627 -0.00486684
35 1 6.25043 5.05216 0.510341 -0.0116252 -0.00358178 0.00558759
36 1 8.7506 5.05216 0.510341 0.00173859 -0.0012969 0.00332687
37 1 2.50016 1.44347 2.55173 -0.0176342 -0.00711275 -0.00536841
38 1 5.00034 1.44347 2.55173 0.712321 0.0512319 0.0202865
39 1 7.50051 1.44347 2.55173 -0.0167771 0.0148198 0.00348787
40 1 3.75025 3.60869 2.55173 0.939645 -0.138857 -0.0981867
41 1 6.25043 3.60869 2.55173 1.5509 0.519101 0.36706
42 1 8.7506 3.60869 2.55173 0.0351722 -0.00111982 -0.000791834
43 1 5.00034 5.7739 2.55173 0.00145555 0.00116563 0.00424423
44 1 7.50051 5.7739 2.55173 0.0340539 -0.0015452 0.00577966
45 1 10.0007 5.7739 2.55173 0.029327 -0.00474137 -0.00495808
46 1 3.75025 2.16521 4.59311 -0.00342251 -0.00553392 -0.00105178
47 1 6.25043 2.16521 4.59311 -0.0116252 0.0040741 -0.00523947
48 1 8.7506 2.16521 4.59311 0.00173859 0.00270431 -0.00233168
49 1 5.00034 4.33042 4.59311 0.00145555 0.00439004 -0.000315778
50 1 7.50051 4.33042 4.59311 0.0340539 0.00493405 -0.00338338
51 1 10.0007 4.33042 4.59311 0.029327 -0.00625498 -0.00281751
52 1 6.25043 6.49564 4.59311 -0.0129209 0.0085652 0.00605651
53 1 8.7506 6.49564 4.59311 0.0221189 -0.00258799 -0.00182998
54 1 11.2508 6.49564 4.59311 -0.0163426 -0.0100458 -0.00710347
