(written by ASE)

375 atoms
1 atom types

0.0      22.858015990899379  xlo xhi
0.0      19.795622528203523  ylo yhi
0.0      14.144303700460936  zlo zhi
    -11.429007995449686                       0                       0  xy xz yz

Masses

1 47.867 #Ti  


    
Atoms # atomic

     1   1      11.426893811659752      19.793791591333171      14.142995465414838
     2   1     -6.8595189810597468      19.793791591333171      14.142995465414838
     3   1     -2.2879157828798742      19.793791591333171      14.142995465414838
     4   1      2.2836874153000006      19.793791591333171      14.142995465414838
     5   1      6.8552906134798812      19.793791591333171      14.142995465414838
     6   1        20.5701002080195      3.9572935687703499      14.142995465414838
     7   1      2.2836874152999997      3.9572935687703517      14.142995465414838
     8   1      6.8552906134798741      3.9572935687703512      14.142995465414838
     9   1      11.426893811659751      3.9572935687703508      14.142995465414838
    10   1       15.99849700983963      3.9572935687703503      14.142995465414838
    11   1      18.284298608929561      7.9164180744110544      14.142995465414838
    12   1  -0.0021141837899373308      7.9164180744110562      14.142995465414838
    13   1      4.5694890143899363      7.9164180744110553      14.142995465414838
    14   1      9.1410922125698111      7.9164180744110553      14.142995465414838
    15   1      13.712695410749692      7.9164180744110544      14.142995465414838
    16   1      15.998497009839626      11.875542580051761      14.142995465414838
    17   1     -2.2879157828798751      11.875542580051762      14.142995465414838
    18   1      2.2836874152999989      11.875542580051762      14.142995465414838
    19   1      6.8552906134798741      11.875542580051762      14.142995465414838
    20   1      11.426893811659754      11.875542580051761      14.142995465414838
    21   1      13.712695410749685      15.834667085692466      14.142995465414838
    22   1     -4.5737173819698134      15.834667085692468      14.142995465414838
    23   1  -0.0021141837899390312      15.834667085692468      14.142995465414838
    24   1      4.5694890143899354      15.834667085692468      14.142995465414838
    25   1      9.1410922125698164      15.834667085692466      14.142995465414838
    26   1      11.426893811659752      19.793791591333171      2.8275525050460932
    27   1     -6.8595189810597468      19.793791591333171      2.8275525050460932
    28   1     -2.2879157828798742      19.793791591333171      2.8275525050460932
    29   1      2.2836874153000006      19.793791591333171      2.8275525050460932
    30   1      6.8552906134798812      19.793791591333171      2.8275525050460932
    31   1        20.5701002080195      3.9572935687703499      2.8275525050460932
    32   1      2.2836874152999997      3.9572935687703517      2.8275525050460932
    33   1      6.8552906134798741      3.9572935687703512      2.8275525050460932
    34   1      11.426893811659751      3.9572935687703508      2.8275525050460932
    35   1       15.99849700983963      3.9572935687703503      2.8275525050460932
    36   1      18.284298608929561      7.9164180744110544      2.8275525050460932
    37   1  -0.0021141837899373308      7.9164180744110562      2.8275525050460932
    38   1      4.5694890143899363      7.9164180744110553      2.8275525050460932
    39   1      9.1410922125698111      7.9164180744110553      2.8275525050460932
    40   1      13.712695410749692      7.9164180744110544      2.8275525050460932
    41   1      15.998497009839626      11.875542580051761      2.8275525050460932
    42   1     -2.2879157828798751      11.875542580051762      2.8275525050460932
    43   1      2.2836874152999989      11.875542580051762      2.8275525050460932
    44   1      6.8552906134798741      11.875542580051762      2.8275525050460932
    45   1      11.426893811659754      11.875542580051761      2.8275525050460932
    46   1      13.712695410749685      15.834667085692466      2.8275525050460932
    47   1     -4.5737173819698134      15.834667085692468      2.8275525050460932
    48   1  -0.0021141837899390312      15.834667085692468      2.8275525050460932
    49   1      4.5694890143899354      15.834667085692468      2.8275525050460932
    50   1      9.1410922125698164      15.834667085692466      2.8275525050460932
    51   1      11.426893811659752      19.793791591333171        5.65641324513828
    52   1     -6.8595189810597468      19.793791591333171        5.65641324513828
    53   1     -2.2879157828798742      19.793791591333171        5.65641324513828
    54   1      2.2836874153000006      19.793791591333171        5.65641324513828
    55   1      6.8552906134798812      19.793791591333171        5.65641324513828
    56   1        20.5701002080195      3.9572935687703499        5.65641324513828
    57   1      2.2836874152999997      3.9572935687703517        5.65641324513828
    58   1      6.8552906134798741      3.9572935687703512        5.65641324513828
    59   1      11.426893811659751      3.9572935687703508        5.65641324513828
    60   1       15.99849700983963      3.9572935687703503        5.65641324513828
    61   1      18.284298608929561      7.9164180744110544        5.65641324513828
    62   1  -0.0021141837899373308      7.9164180744110562        5.65641324513828
    63   1      4.5694890143899363      7.9164180744110553        5.65641324513828
    64   1      9.1410922125698111      7.9164180744110553        5.65641324513828
    65   1      13.712695410749692      7.9164180744110544        5.65641324513828
    66   1      15.998497009839626      11.875542580051761        5.65641324513828
    67   1     -2.2879157828798751      11.875542580051762        5.65641324513828
    68   1      2.2836874152999989      11.875542580051762        5.65641324513828
    69   1      6.8552906134798741      11.875542580051762        5.65641324513828
    70   1      11.426893811659754      11.875542580051761        5.65641324513828
    71   1      13.712695410749685      15.834667085692466        5.65641324513828
    72   1     -4.5737173819698134      15.834667085692468        5.65641324513828
    73   1  -0.0021141837899390312      15.834667085692468        5.65641324513828
    74   1      4.5694890143899354      15.834667085692468        5.65641324513828
    75   1      9.1410922125698164      15.834667085692466        5.65641324513828
    76   1      11.426893811659752      19.793791591333171      8.4852739852304655
    77   1     -6.8595189810597468      19.793791591333171      8.4852739852304655
    78   1     -2.2879157828798742      19.793791591333171      8.4852739852304655
    79   1      2.2836874153000006      19.793791591333171      8.4852739852304655
    80   1      6.8552906134798812      19.793791591333171      8.4852739852304655
    81   1        20.5701002080195      3.9572935687703499      8.4852739852304655
    82   1      2.2836874152999997      3.9572935687703517      8.4852739852304655
    83   1      6.8552906134798741      3.9572935687703512      8.4852739852304655
    84   1      11.426893811659751      3.9572935687703508      8.4852739852304655
    85   1       15.99849700983963      3.9572935687703503      8.4852739852304655
    86   1      18.284298608929561      7.9164180744110544      8.4852739852304655
    87   1  -0.0021141837899373308      7.9164180744110562      8.4852739852304655
    88   1      4.5694890143899363      7.9164180744110553      8.4852739852304655
    89   1      9.1410922125698111      7.9164180744110553      8.4852739852304655
    90   1      13.712695410749692      7.9164180744110544      8.4852739852304655
    91   1      15.998497009839626      11.875542580051761      8.4852739852304655
    92   1     -2.2879157828798751      11.875542580051762      8.4852739852304655
    93   1      2.2836874152999989      11.875542580051762      8.4852739852304655
    94   1      6.8552906134798741      11.875542580051762      8.4852739852304655
    95   1      11.426893811659754      11.875542580051761      8.4852739852304655
    96   1      13.712695410749685      15.834667085692466      8.4852739852304655
    97   1     -4.5737173819698134      15.834667085692468      8.4852739852304655
    98   1  -0.0021141837899390312      15.834667085692468      8.4852739852304655
    99   1      4.5694890143899354      15.834667085692468      8.4852739852304655
   100   1      9.1410922125698164      15.834667085692466      8.4852739852304655
   101   1      11.426893811659752      19.793791591333171      11.314134725322653
   102   1     -6.8595189810597468      19.793791591333171      11.314134725322653
   103   1     -2.2879157828798742      19.793791591333171      11.314134725322653
   104   1      2.2836874153000006      19.793791591333171      11.314134725322653
   105   1      6.8552906134798812      19.793791591333171      11.314134725322653
   106   1        20.5701002080195      3.9572935687703499      11.314134725322653
   107   1      2.2836874152999997      3.9572935687703517      11.314134725322653
   108   1      6.8552906134798741      3.9572935687703512      11.314134725322653
   109   1      11.426893811659751      3.9572935687703508      11.314134725322653
   110   1       15.99849700983963      3.9572935687703503      11.314134725322653
   111   1      18.284298608929561      7.9164180744110544      11.314134725322653
   112   1  -0.0021141837899373308      7.9164180744110562      11.314134725322653
   113   1      4.5694890143899363      7.9164180744110553      11.314134725322653
   114   1      9.1410922125698111      7.9164180744110553      11.314134725322653
   115   1      13.712695410749692      7.9164180744110544      11.314134725322653
   116   1      15.998497009839626      11.875542580051761      11.314134725322653
   117   1     -2.2879157828798751      11.875542580051762      11.314134725322653
   118   1      2.2836874152999989      11.875542580051762      11.314134725322653
   119   1      6.8552906134798741      11.875542580051762      11.314134725322653
   120   1      11.426893811659754      11.875542580051761      11.314134725322653
   121   1      13.712695410749685      15.834667085692466      11.314134725322653
   122   1     -4.5737173819698134      15.834667085692468      11.314134725322653
   123   1  -0.0021141837899390312      15.834667085692468      11.314134725322653
   124   1      4.5694890143899354      15.834667085692468      11.314134725322653
   125   1      9.1410922125698164      15.834667085692466      11.314134725322653
   126   1    0.082922147014286726      2.6375854002209298      1.4657417363226468
   127   1      4.5694890143899363      2.6375854002209294      1.4131221349999996
   128   1      9.1410922125698111      2.6375854002209289      1.4131221349999996
   129   1      13.712695410749687      2.6375854002209285      1.4131221349999996
   130   1      18.284298608929561       2.637585400220928      1.4131221349999996
   131   1     -2.2879157828798755      6.5967099058616343      1.4131221349999996
   132   1      2.2836874152999993      6.5967099058616343      1.4131221349999996
   133   1      6.8552906134798768      6.5967099058616334      1.4131221349999996
   134   1      11.426893811659747      6.5967099058616334      1.4131221349999996
   135   1      15.998497009839625      6.5967099058616325      1.4131221349999996
   136   1     -4.5737173819698134      10.555834411502341      1.4131221349999996
   137   1  -0.0021141837899383495      10.555834411502341      1.4131221349999996
   138   1      4.5694890143899363      10.555834411502341      1.4131221349999996
   139   1      9.1410922125698093      10.555834411502339      1.4131221349999996
   140   1      13.712695410749687      10.555834411502339      1.4131221349999996
   141   1     -6.8595189810597503      14.514958917143044      1.4131221349999996
   142   1     -2.2879157828798751      14.514958917143044      1.4131221349999996
   143   1      2.2836874152999997      14.514958917143044      1.4131221349999996
   144   1      6.8552906134798732      14.514958917143044      1.4131221349999996
   145   1      11.426893811659751      14.514958917143042      1.4131221349999996
   146   1     -9.1453205801496882       18.47408342278375      1.4131221349999996
   147   1     -4.5737173819698125       18.47408342278375      1.4131221349999996
   148   1  -0.0021141837899378928       18.47408342278375      1.4131221349999996
   149   1      4.5694890143899354       18.47408342278375      1.4131221349999996
   150   1      9.1410922125698111       18.47408342278375      1.4131221349999996
   151   1  -0.0021141837899387112      2.6375854002209298      4.2419828750921864
   152   1      4.5694890143899363      2.6375854002209294      4.2419828750921864
   153   1      9.1410922125698111      2.6375854002209289      4.2419828750921864
   154   1      13.712695410749687      2.6375854002209285      4.2419828750921864
   155   1      18.284298608929561       2.637585400220928      4.2419828750921864
   156   1     -2.2879157828798755      6.5967099058616343      4.2419828750921864
   157   1      2.2836874152999993      6.5967099058616343      4.2419828750921864
   158   1      6.8552906134798768      6.5967099058616334      4.2419828750921864
   159   1      11.426893811659747      6.5967099058616334      4.2419828750921864
   160   1      15.998497009839625      6.5967099058616325      4.2419828750921864
   161   1     -4.5737173819698134      10.555834411502341      4.2419828750921864
   162   1  -0.0021141837899383495      10.555834411502341      4.2419828750921864
   163   1      4.5694890143899363      10.555834411502341      4.2419828750921864
   164   1      9.1410922125698093      10.555834411502339      4.2419828750921864
   165   1      13.712695410749687      10.555834411502339      4.2419828750921864
   166   1     -6.8595189810597503      14.514958917143044      4.2419828750921864
   167   1     -2.2879157828798751      14.514958917143044      4.2419828750921864
   168   1      2.2836874152999997      14.514958917143044      4.2419828750921864
   169   1      6.8552906134798732      14.514958917143044      4.2419828750921864
   170   1      11.426893811659751      14.514958917143042      4.2419828750921864
   171   1     -9.1453205801496882       18.47408342278375      4.2419828750921864
   172   1     -4.5737173819698125       18.47408342278375      4.2419828750921864
   173   1  -0.0021141837899378928       18.47408342278375      4.2419828750921864
   174   1      4.5694890143899354       18.47408342278375      4.2419828750921864
   175   1      9.1410922125698111       18.47408342278375      4.2419828750921864
   176   1  -0.0021141837899387112      2.6375854002209298      7.0708436151843719
   177   1      4.5694890143899363      2.6375854002209294      7.0708436151843719
   178   1      9.1410922125698111      2.6375854002209289      7.0708436151843719
   179   1      13.712695410749687      2.6375854002209285      7.0708436151843719
   180   1      18.284298608929561       2.637585400220928      7.0708436151843719
   181   1     -2.2879157828798755      6.5967099058616343      7.0708436151843719
   182   1      2.2836874152999993      6.5967099058616343      7.0708436151843719
   183   1      6.8552906134798768      6.5967099058616334      7.0708436151843719
   184   1      11.426893811659747      6.5967099058616334      7.0708436151843719
   185   1      15.998497009839625      6.5967099058616325      7.0708436151843719
   186   1     -4.5737173819698134      10.555834411502341      7.0708436151843719
   187   1  -0.0021141837899383495      10.555834411502341      7.0708436151843719
   188   1      4.5694890143899363      10.555834411502341      7.0708436151843719
   189   1      9.1410922125698093      10.555834411502339      7.0708436151843719
   190   1      13.712695410749687      10.555834411502339      7.0708436151843719
   191   1     -6.8595189810597503      14.514958917143044      7.0708436151843719
   192   1     -2.2879157828798751      14.514958917143044      7.0708436151843719
   193   1      2.2836874152999997      14.514958917143044      7.0708436151843719
   194   1      6.8552906134798732      14.514958917143044      7.0708436151843719
   195   1      11.426893811659751      14.514958917143042      7.0708436151843719
   196   1     -9.1453205801496882       18.47408342278375      7.0708436151843719
   197   1     -4.5737173819698125       18.47408342278375      7.0708436151843719
   198   1  -0.0021141837899378928       18.47408342278375      7.0708436151843719
   199   1      4.5694890143899354       18.47408342278375      7.0708436151843719
   200   1      9.1410922125698111       18.47408342278375      7.0708436151843719
   201   1  -0.0021141837899387112      2.6375854002209298      9.8997043552765582
   202   1      4.5694890143899363      2.6375854002209294      9.8997043552765582
   203   1      9.1410922125698111      2.6375854002209289      9.8997043552765582
   204   1      13.712695410749687      2.6375854002209285      9.8997043552765582
   205   1      18.284298608929561       2.637585400220928      9.8997043552765582
   206   1     -2.2879157828798755      6.5967099058616343      9.8997043552765582
   207   1      2.2836874152999993      6.5967099058616343      9.8997043552765582
   208   1      6.8552906134798768      6.5967099058616334      9.8997043552765582
   209   1      11.426893811659747      6.5967099058616334      9.8997043552765582
   210   1      15.998497009839625      6.5967099058616325      9.8997043552765582
   211   1     -4.5737173819698134      10.555834411502341      9.8997043552765582
   212   1  -0.0021141837899383495      10.555834411502341      9.8997043552765582
   213   1      4.5694890143899363      10.555834411502341      9.8997043552765582
   214   1      9.1410922125698093      10.555834411502339      9.8997043552765582
   215   1      13.712695410749687      10.555834411502339      9.8997043552765582
   216   1     -6.8595189810597503      14.514958917143044      9.8997043552765582
   217   1     -2.2879157828798751      14.514958917143044      9.8997043552765582
   218   1      2.2836874152999997      14.514958917143044      9.8997043552765582
   219   1      6.8552906134798732      14.514958917143044      9.8997043552765582
   220   1      11.426893811659751      14.514958917143042      9.8997043552765582
   221   1     -9.1453205801496882       18.47408342278375      9.8997043552765582
   222   1     -4.5737173819698125       18.47408342278375      9.8997043552765582
   223   1  -0.0021141837899378928       18.47408342278375      9.8997043552765582
   224   1      4.5694890143899354       18.47408342278375      9.8997043552765582
   225   1      9.1410922125698111       18.47408342278375      9.8997043552765582
   226   1  -0.0021141837899387112      2.6375854002209298      12.728565095368747
   227   1      4.5694890143899363      2.6375854002209294      12.728565095368747
   228   1      9.1410922125698111      2.6375854002209289      12.728565095368747
   229   1      13.712695410749687      2.6375854002209285      12.728565095368747
   230   1      18.284298608929561       2.637585400220928      12.728565095368747
   231   1     -2.2879157828798755      6.5967099058616343      12.728565095368747
   232   1      2.2836874152999993      6.5967099058616343      12.728565095368747
   233   1      6.8552906134798768      6.5967099058616334      12.728565095368747
   234   1      11.426893811659747      6.5967099058616334      12.728565095368747
   235   1      15.998497009839625      6.5967099058616325      12.728565095368747
   236   1     -4.5737173819698134      10.555834411502341      12.728565095368747
   237   1  -0.0021141837899383495      10.555834411502341      12.728565095368747
   238   1      4.5694890143899363      10.555834411502341      12.728565095368747
   239   1      9.1410922125698093      10.555834411502339      12.728565095368747
   240   1      13.712695410749687      10.555834411502339      12.728565095368747
   241   1     -6.8595189810597503      14.514958917143044      12.728565095368747
   242   1     -2.2879157828798751      14.514958917143044      12.728565095368747
   243   1      2.2836874152999997      14.514958917143044      12.728565095368747
   244   1      6.8552906134798732      14.514958917143044      12.728565095368747
   245   1      11.426893811659751      14.514958917143042      12.728565095368747
   246   1     -9.1453205801496882       18.47408342278375      12.728565095368747
   247   1     -4.5737173819698125       18.47408342278375      12.728565095368747
   248   1  -0.0021141837899378928       18.47408342278375      12.728565095368747
   249   1      4.5694890143899354       18.47408342278375      12.728565095368747
   250   1      9.1410922125698111       18.47408342278375      12.728565095368747
   251   1      2.2836874153000015      1.3178772316790692      1.4131221349999996
   252   1      6.8552906134798786      1.3178772316790688      1.4131221349999996
   253   1      11.426893811659749      1.3178772316790683      1.4131221349999996
   254   1      15.998497009839628      1.3178772316790679      1.4131221349999996
   255   1        20.5701002080195      1.3178772316790672      1.4131221349999996
   256   1  -0.0021141837899358046      5.2770017373197744      1.4131221349999996
   257   1       4.569489014389938      5.2770017373197735      1.4131221349999996
   258   1      9.1410922125698129      5.2770017373197735      1.4131221349999996
   259   1       13.71269541074969      5.2770017373197726      1.4131221349999996
   260   1      18.284298608929564      5.2770017373197726      1.4131221349999996
   261   1     -2.2879157828798724      9.2361262429604789      1.4131221349999996
   262   1      2.2836874153000015      9.2361262429604789      1.4131221349999996
   263   1      6.8552906134798741      9.2361262429604789      1.4131221349999996
   264   1      11.426893811659749      9.2361262429604771      1.4131221349999996
   265   1      15.998497009839625      9.2361262429604771      1.4131221349999996
   266   1     -4.5737173819698098      13.195250748601184      1.4131221349999996
   267   1  -0.0021141837899362362      13.195250748601184      1.4131221349999996
   268   1      4.5694890143899363      13.195250748601184      1.4131221349999996
   269   1      9.1410922125698146      13.195250748601183      1.4131221349999996
   270   1       13.71269541074969      13.195250748601183      1.4131221349999996
   271   1     -6.8595189810597486      17.154375254241891      1.4131221349999996
   272   1     -2.2879157828798742      17.154375254241891      1.4131221349999996
   273   1       2.283687415299998      17.154375254241891      1.4131221349999996
   274   1      6.8552906134798768      17.154375254241891      1.4131221349999996
   275   1      11.426893811659752      17.154375254241891      1.4131221349999996
   276   1      2.2836874153000015      1.3178772316790692      4.2419828750921864
   277   1      6.8552906134798786      1.3178772316790688      4.2419828750921864
   278   1      11.426893811659749      1.3178772316790683      4.2419828750921864
   279   1      15.998497009839628      1.3178772316790679      4.2419828750921864
   280   1        20.5701002080195      1.3178772316790672      4.2419828750921864
   281   1  -0.0021141837899358046      5.2770017373197744      4.2419828750921864
   282   1       4.569489014389938      5.2770017373197735      4.2419828750921864
   283   1      9.1410922125698129      5.2770017373197735      4.2419828750921864
   284   1       13.71269541074969      5.2770017373197726      4.2419828750921864
   285   1      18.284298608929564      5.2770017373197726      4.2419828750921864
   286   1     -2.2879157828798724      9.2361262429604789      4.2419828750921864
   287   1      2.2836874153000015      9.2361262429604789      4.2419828750921864
   288   1      6.8552906134798741      9.2361262429604789      4.2419828750921864
   289   1      11.426893811659749      9.2361262429604771      4.2419828750921864
   290   1      15.998497009839625      9.2361262429604771      4.2419828750921864
   291   1     -4.5737173819698098      13.195250748601184      4.2419828750921864
   292   1  -0.0021141837899362362      13.195250748601184      4.2419828750921864
   293   1      4.5694890143899363      13.195250748601184      4.2419828750921864
   294   1      9.1410922125698146      13.195250748601183      4.2419828750921864
   295   1       13.71269541074969      13.195250748601183      4.2419828750921864
   296   1     -6.8595189810597486      17.154375254241891      4.2419828750921864
   297   1     -2.2879157828798742      17.154375254241891      4.2419828750921864
   298   1       2.283687415299998      17.154375254241891      4.2419828750921864
   299   1      6.8552906134798768      17.154375254241891      4.2419828750921864
   300   1      11.426893811659752      17.154375254241891      4.2419828750921864
   301   1      2.2836874153000015      1.3178772316790692      7.0708436151843719
   302   1      6.8552906134798786      1.3178772316790688      7.0708436151843719
   303   1      11.426893811659749      1.3178772316790683      7.0708436151843719
   304   1      15.998497009839628      1.3178772316790679      7.0708436151843719
   305   1        20.5701002080195      1.3178772316790672      7.0708436151843719
   306   1  -0.0021141837899358046      5.2770017373197744      7.0708436151843719
   307   1       4.569489014389938      5.2770017373197735      7.0708436151843719
   308   1      9.1410922125698129      5.2770017373197735      7.0708436151843719
   309   1       13.71269541074969      5.2770017373197726      7.0708436151843719
   310   1      18.284298608929564      5.2770017373197726      7.0708436151843719
   311   1     -2.2879157828798724      9.2361262429604789      7.0708436151843719
   312   1      2.2836874153000015      9.2361262429604789      7.0708436151843719
   313   1      6.8552906134798741      9.2361262429604789      7.0708436151843719
   314   1      11.426893811659749      9.2361262429604771      7.0708436151843719
   315   1      15.998497009839625      9.2361262429604771      7.0708436151843719
   316   1     -4.5737173819698098      13.195250748601184      7.0708436151843719
   317   1  -0.0021141837899362362      13.195250748601184      7.0708436151843719
   318   1      4.5694890143899363      13.195250748601184      7.0708436151843719
   319   1      9.1410922125698146      13.195250748601183      7.0708436151843719
   320   1       13.71269541074969      13.195250748601183      7.0708436151843719
   321   1     -6.8595189810597486      17.154375254241891      7.0708436151843719
   322   1     -2.2879157828798742      17.154375254241891      7.0708436151843719
   323   1       2.283687415299998      17.154375254241891      7.0708436151843719
   324   1      6.8552906134798768      17.154375254241891      7.0708436151843719
   325   1      11.426893811659752      17.154375254241891      7.0708436151843719
   326   1      2.2836874153000015      1.3178772316790692      9.8997043552765582
   327   1      6.8552906134798786      1.3178772316790688      9.8997043552765582
   328   1      11.426893811659749      1.3178772316790683      9.8997043552765582
   329   1      15.998497009839628      1.3178772316790679      9.8997043552765582
   330   1        20.5701002080195      1.3178772316790672      9.8997043552765582
   331   1  -0.0021141837899358046      5.2770017373197744      9.8997043552765582
   332   1       4.569489014389938      5.2770017373197735      9.8997043552765582
   333   1      9.1410922125698129      5.2770017373197735      9.8997043552765582
   334   1       13.71269541074969      5.2770017373197726      9.8997043552765582
   335   1      18.284298608929564      5.2770017373197726      9.8997043552765582
   336   1     -2.2879157828798724      9.2361262429604789      9.8997043552765582
   337   1      2.2836874153000015      9.2361262429604789      9.8997043552765582
   338   1      6.8552906134798741      9.2361262429604789      9.8997043552765582
   339   1      11.426893811659749      9.2361262429604771      9.8997043552765582
   340   1      15.998497009839625      9.2361262429604771      9.8997043552765582
   341   1     -4.5737173819698098      13.195250748601184      9.8997043552765582
   342   1  -0.0021141837899362362      13.195250748601184      9.8997043552765582
   343   1      4.5694890143899363      13.195250748601184      9.8997043552765582
   344   1      9.1410922125698146      13.195250748601183      9.8997043552765582
   345   1       13.71269541074969      13.195250748601183      9.8997043552765582
   346   1     -6.8595189810597486      17.154375254241891      9.8997043552765582
   347   1     -2.2879157828798742      17.154375254241891      9.8997043552765582
   348   1       2.283687415299998      17.154375254241891      9.8997043552765582
   349   1      6.8552906134798768      17.154375254241891      9.8997043552765582
   350   1      11.426893811659752      17.154375254241891      9.8997043552765582
   351   1      2.2836874153000015      1.3178772316790692      12.728565095368747
   352   1      6.8552906134798786      1.3178772316790688      12.728565095368747
   353   1      11.426893811659749      1.3178772316790683      12.728565095368747
   354   1      15.998497009839628      1.3178772316790679      12.728565095368747
   355   1        20.5701002080195      1.3178772316790672      12.728565095368747
   356   1  -0.0021141837899358046      5.2770017373197744      12.728565095368747
   357   1       4.569489014389938      5.2770017373197735      12.728565095368747
   358   1      9.1410922125698129      5.2770017373197735      12.728565095368747