(written by ASE)

24 atoms
1 atom types

0.0      9.1347496612000008  xlo xhi
0.0      7.9109252638000003  ylo yhi
0.0      5.6524885400000002  zlo zhi
    -4.5673748306000004                       0                       0  xy xz yz

Masses

1 47.867 #Ti 
    
    
Atoms # atomic

     1   1                       0                       0                       0
     2   1      4.5673748306000004                       0                       0
     3   1     -2.2836874153000002      3.9554626319000001                       0
     4   1      2.2836874153000002      3.9554626319000001                       0
     5   1                       0                       0      2.8262442700000001
     6   1      4.5673748306000004                       0      2.8262442700000001
     7   1     -2.2836874153000002      3.9554626319000001      2.8262442700000001
     8   1      2.2836874153000002      3.9554626319000001      2.8262442700000001
     9   1   0.0085036330804224951      2.6369750878999998      1.4183840951322648
    10   1      4.5673748306000004      2.6369750878999998      1.4131221350000001
    11   1     -2.2836874153000006      6.5924377198000013      1.4131221350000001
    12   1      2.2836874153000006      6.5924377198000013      1.4131221350000001
    13   1 -4.0654425378952787e-16      2.6369750878999998      4.2393664050000002
    14   1      4.5673748306000004      2.6369750878999998      4.2393664050000002
    15   1     -2.2836874153000006      6.5924377198000013      4.2393664050000002
    16   1      2.2836874153000006      6.5924377198000013      4.2393664050000002
    17   1      2.2836874152999997      1.3184875440000003      1.4131221350000001
    18   1      6.8510622459000006      1.3184875440000003      1.4131221350000001
    19   1 -6.9040586086780662e-17      5.2739501759000014      1.4131221350000001
    20   1      4.5673748305999995      5.2739501759000014      1.4131221350000001
    21   1      2.2836874152999997      1.3184875440000003      4.2393664050000002
    22   1      6.8510622459000006      1.3184875440000003      4.2393664050000002
    23   1 -6.9040586086780662e-17      5.2739501759000014      4.2393664050000002
    24   1      4.5673748305999995      5.2739501759000014      4.2393664050000002
