ITEM: TIMESTEP
0
ITEM: NUMBER OF ATOMS
375
ITEM: BOX BOUNDS xy xz yz pp pp pp
-1.1429007995449686e+01 2.2858015990899379e+01 -1.1429007995449686e+01
0.0000000000000000e+00 1.9795622528203523e+01 0.0000000000000000e+00
0.0000000000000000e+00 1.4144303700460936e+01 0.0000000000000000e+00
ITEM: ATOMS id type x y z fx fy fz
32 1 2.28369 3.95729 2.82755 0.087321 0.152056 0.0719359
126 1 0.0829221 2.63759 1.46574 -0.526978 -0.135258 -0.379963
251 1 2.28369 1.31788 1.41312 -0.00946039 0.00316186 0.0397144
33 1 6.85529 3.95729 2.82755 0.0206728 0.010083 0.0107837
127 1 4.56949 2.63759 1.41312 -0.073361 -0.0576167 0.0104938
252 1 6.85529 1.31788 1.41312 -0.0162689 0.0187365 -8.6363e-06
34 1 11.4269 3.95729 2.82755 -4.54097e-14 -1.6008e-14 -7.28062e-15
128 1 9.14109 2.63759 1.41312 0.00715678 7.66791e-11 -9.1746e-09
253 1 11.4269 1.31788 1.41312 6.0393e-14 -7.65569e-11 -1.14691e-14
129 1 13.7127 2.63759 1.41312 0.00273449 7.6582e-11 -1.57469e-09
35 1 15.9985 3.95729 2.82755 -0.00184064 8.29354e-05 7.09693e-05
130 1 18.2843 2.63759 1.41312 0.162806 -0.0526868 -0.0199542
254 1 15.9985 1.31788 1.41312 -0.0339911 0.000874425 -1.74896e-06
31 1 20.5701 3.95729 2.82755 -0.0108899 0.100657 0.0242488
255 1 20.5701 1.31788 1.41312 0.205973 0.173882 0.0419259
37 1 -0.00211418 7.91642 2.82755 -0.0113045 0.0199211 -0.00280518
131 1 -2.28792 6.59671 1.41312 0.0165792 -0.0248864 -0.0124376
256 1 -0.00211418 5.277 1.41312 -0.0149139 -0.0453124 0.0391499
132 1 2.28369 6.59671 1.41312 -0.0279925 -0.0302068 -0.00767577
38 1 4.56949 7.91642 2.82755 0.00798932 0.00619272 0.00410781
133 1 6.85529 6.59671 1.41312 0.011368 0.00618752 -1.41182e-08
257 1 4.56949 5.277 1.41312 0.000900939 -0.00549044 0.00142519
39 1 9.14109 7.91642 2.82755 1.6866e-14 -2.77875e-14 -1.13243e-14
134 1 11.4269 6.59671 1.41312 3.2852e-13 7.65548e-11 5.41234e-16
258 1 9.14109 5.277 1.41312 6.28941e-14 -7.67427e-11 -1.77636e-15
40 1 13.7127 7.91642 2.82755 7.13302e-14 4.48628e-14 -1.08663e-14
259 1 13.7127 5.277 1.41312 -3.50441e-13 -7.66213e-11 1.8735e-15
36 1 18.2843 7.91642 2.82755 0.00157275 0.00025771 -0.00164177
135 1 15.9985 6.59671 1.41312 0.00669754 -0.00236413 -7.35625e-10
260 1 18.2843 5.277 1.41312 -0.00604815 0.0025685 -0.00261345
136 1 -4.57372 10.5558 1.41312 0.00266864 -0.00462222 8.39073e-10
42 1 -2.28792 11.8755 2.82755 2.86923e-14 -4.98004e-14 -2.08464e-14
137 1 -0.00211418 10.5558 1.41312 -0.00656419 0.00213273 -4.10456e-09
261 1 -2.28792 9.23613 1.41312 -0.000629317 0.0135917 -2.38502e-06
43 1 2.28369 11.8755 2.82755 7.95505e-14 2.16861e-14 -2.15453e-14
262 1 2.28369 9.23613 1.41312 0.000740716 -0.0167771 -5.31998e-06
44 1 6.85529 11.8755 2.82755 7.93569e-15 -2.3644e-14 -1.95816e-14
138 1 4.56949 10.5558 1.41312 0.00390235 0.00675909 -4.94363e-09
263 1 6.85529 9.23613 1.41312 -1.66611e-13 -7.66585e-11 -1.85962e-15
45 1 11.4269 11.8755 2.82755 -2.50264e-14 6.79403e-14 -6.81399e-15
139 1 9.14109 10.5558 1.41312 1.68389e-13 7.65651e-11 -4.30211e-15
264 1 11.4269 9.23613 1.41312 1.49834e-13 -7.66473e-11 -5.85643e-15
140 1 13.7127 10.5558 1.41312 -7.16302e-14 7.66416e-11 -6.22154e-15
41 1 15.9985 11.8755 2.82755 -1.12965e-14 2.668e-14 -5.03481e-15
265 1 15.9985 9.23613 1.41312 -1.27176e-13 -7.66257e-11 -1.06382e-14
47 1 -4.57372 15.8347 2.82755 -9.5618e-14 -2.60833e-14 -1.2105e-14
141 1 -6.85952 14.515 1.41312 0.00390235 -0.00675909 -4.94363e-09
266 1 -4.57372 13.1953 1.41312 -8.47933e-14 -7.66778e-11 -1.66533e-15
48 1 -0.00211418 15.8347 2.82755 -4.25235e-14 4.31659e-14 -7.32747e-15
142 1 -2.28792 14.515 1.41312 1.0117e-13 7.66974e-11 -1.69309e-15
267 1 -0.00211418 13.1953 1.41312 -7.77109e-14 -7.66682e-11 7.21645e-16
143 1 2.28369 14.515 1.41312 1.16503e-13 7.67516e-11 7.35523e-16
49 1 4.56949 15.8347 2.82755 2.27278e-14 -4.62184e-14 -3.93435e-15
144 1 6.85529 14.515 1.41312 0.00266864 0.00462222 8.39065e-10
268 1 4.56949 13.1953 1.41312 -9.12427e-14 -7.66811e-11 1.26288e-15
50 1 9.14109 15.8347 2.82755 -7.16486e-06 0.00300879 -0.0016096
145 1 11.4269 14.515 1.41312 -0.00656419 -0.00213273 -4.10457e-09
269 1 9.14109 13.1953 1.41312 -3.5347e-13 -7.64517e-11 -4.16334e-15
46 1 13.7127 15.8347 2.82755 0.000368685 -0.00835872 0.00408596
270 1 13.7127 13.1953 1.41312 5.33462e-14 -7.66393e-11 -4.7835e-15
146 1 -9.14532 18.4741 1.41312 -0.0163888 0.147703 0.00961251
27 1 -6.85952 19.7938 2.82755 0.0956109 -0.0695772 0.0192902
147 1 -4.57372 18.4741 1.41312 0.011368 -0.00618752 -1.41182e-08
271 1 -6.85952 17.1544 1.41312 -0.00759837 -0.00484835 -6.99514e-06
28 1 -2.28792 19.7938 2.82755 1.81275e-14 6.59195e-15 -2.14486e-14
148 1 -0.00211418 18.4741 1.41312 9.51657e-14 7.67084e-11 -4.58054e-15
272 1 -2.28792 17.1544 1.41312 -2.8097e-13 -7.67458e-11 -4.48408e-15
29 1 2.28369 19.7938 2.82755 -1.52951e-14 -7.13457e-14 -2.24969e-14
273 1 2.28369 17.1544 1.41312 6.55689e-14 -7.68157e-11 -8.75826e-15
30 1 6.85529 19.7938 2.82755 -0.0175056 -0.0133721 0.0118301
149 1 4.56949 18.4741 1.41312 0.00669754 0.00236413 -7.35628e-10
274 1 6.85529 17.1544 1.41312 -0.0285631 -0.0370456 -1.61156e-06
26 1 11.4269 19.7938 2.82755 -0.0037995 -0.196081 0.0752698
150 1 9.14109 18.4741 1.41312 0.00368303 0.121438 -0.0171502
275 1 11.4269 17.1544 1.41312 0.0279734 -0.0391266 0.00123274
151 1 -0.00211418 2.63759 4.24198 -0.0368631 -0.09128 0.178084
176 1 -0.00211418 2.63759 7.07084 0.0109643 -0.00265512 -0.0345235
57 1 2.28369 3.95729 5.65641 0.0077492 0.0402634 0.041968
276 1 2.28369 1.31788 4.24198 0.0537089 -0.0233154 -0.0753252
301 1 2.28369 1.31788 7.07084 0.00266214 -0.00158135 0.0087552
58 1 6.85529 3.95729 5.65641 3.27537e-05 4.66647e-08 1.48912e-07
152 1 4.56949 2.63759 4.24198 -0.102361 -0.0557669 -0.0118066
177 1 4.56949 2.63759 7.07084 -0.0121019 -0.00816203 -0.0148555
277 1 6.85529 1.31788 4.24198 0.00388035 0.00178598 -0.0038307
302 1 6.85529 1.31788 7.07084 -2.88741e-13 -7.65602e-11 6.57903e-15
59 1 11.4269 3.95729 5.65641 -5.14903e-14 -5.01682e-15 -1.57037e-14
153 1 9.14109 2.63759 4.24198 3.16974e-14 7.66729e-11 -5.23502e-15
178 1 9.14109 2.63759 7.07084 5.13271e-14 7.66905e-11 8.11937e-15
278 1 11.4269 1.31788 4.24198 7.003e-14 -7.65587e-11 -4.05924e-16
303 1 11.4269 1.31788 7.07084 6.87963e-14 -7.65596e-11 -1.10029e-15
154 1 13.7127 2.63759 4.24198 4.5932e-14 7.65838e-11 -6.99004e-15
179 1 13.7127 2.63759 7.07084 3.09217e-14 7.65857e-11 1.53942e-15
60 1 15.9985 3.95729 5.65641 -3.51242e-08 8.17949e-09 2.62992e-08
155 1 18.2843 2.63759 4.24198 0.00951841 0.00149191 -0.0138831
180 1 18.2843 2.63759 7.07084 -0.0022258 0.00161463 0.00253185
279 1 15.9985 1.31788 4.24198 -0.000397372 -0.000350883 0.000751107
304 1 15.9985 1.31788 7.07084 -3.79541e-13 -7.66072e-11 -5.27844e-15
56 1 20.5701 3.95729 5.65641 -0.00846127 -0.00223763 0.00792993
280 1 20.5701 1.31788 4.24198 0.0453867 0.0221138 0.00298212
305 1 20.5701 1.31788 7.07084 -0.000559906 -0.000220186 -0.00803601
62 1 -0.00211418 7.91642 5.65641 -0.000213439 0.023371 0.0129115
156 1 -2.28792 6.59671 4.24198 0.0466931 -0.030647 0.000598292
181 1 -2.28792 6.59671 7.07084 0.00756104 -0.0035247 -0.00862664
281 1 -0.00211418 5.277 4.24198 0.00558682 0.0698686 -0.030684
306 1 -0.00211418 5.277 7.07084 -0.000119816 0.00188011 0.00945915
157 1 2.28369 6.59671 4.24198 -0.0350958 -0.0237317 -0.00209566
182 1 2.28369 6.59671 7.07084 -0.00534499 -0.00215502 -0.00557557
63 1 4.56949 7.91642 5.65641 1.63623e-05 2.82982e-05 7.16443e-08
158 1 6.85529 6.59671 4.24198 -2.66765e-14 7.66922e-11 -2.85795e-15
183 1 6.85529 6.59671 7.07084 -1.42102e-14 7.66875e-11 3.40032e-15
282 1 4.56949 5.277 4.24198 0.0100348 0.00937896 5.79856e-05
307 1 4.56949 5.277 7.07084 -5.89974e-05 -3.39006e-05 -2.71773e-05
64 1 9.14109 7.91642 5.65641 2.09027e-14 -3.66284e-14 -1.1079e-14
159 1 11.4269 6.59671 4.24198 3.18103e-13 7.65664e-11 -5.77247e-15
184 1 11.4269 6.59671 7.07084 3.21422e-13 7.65659e-11 8.18528e-15
283 1 9.14109 5.277 4.24198 5.60399e-14 -7.67334e-11 -8.40329e-15
308 1 9.14109 5.277 7.07084 4.94201e-14 -7.67434e-11 8.53467e-15
65 1 13.7127 7.91642 5.65641 7.50613e-14 3.88912e-14 -3.71655e-15
284 1 13.7127 5.277 4.24198 -3.41233e-13 -7.66267e-11 -1.43563e-14
309 1 13.7127 5.277 7.07084 -3.60239e-13 -7.66308e-11 2.27051e-15
61 1 18.2843 7.91642 5.65641 -2.59252e-08 2.70757e-08 2.86575e-08
160 1 15.9985 6.59671 4.24198 -4.42077e-14 7.67076e-11 -9.64734e-15
185 1 15.9985 6.59671 7.07084 -2.77972e-14 7.67182e-11 1.38514e-15
285 1 18.2843 5.277 4.24198 0.000718388 -0.00407697 -0.00684193
310 1 18.2843 5.277 7.07084 -4.04928e-08 2.31865e-08 1.28097e-07
161 1 -4.57372 10.5558 4.24198 -5.92998e-14 7.66764e-11 -4.68317e-15
186 1 -4.57372 10.5558 7.07084 -6.39905e-14 7.66857e-11 1.20699e-14
67 1 -2.28792 11.8755 5.65641 2.73323e-14 -4.34409e-14 -1.65453e-14
162 1 -0.00211418 10.5558 4.24198 2.29994e-13 7.65968e-11 2.03747e-16
187 1 -0.00211418 10.5558 7.07084 2.23468e-13 7.66353e-11 5.15483e-15
286 1 -2.28792 9.23613 4.24198 -0.000915316 0.00183681 0.000271801
311 1 -2.28792 9.23613 7.07084 -9.11216e-14 -7.66804e-11 5.39393e-15
68 1 2.28369 11.8755 5.65641 7.55363e-14 8.5117e-15 -1.17966e-14
287 1 2.28369 9.23613 4.24198 0.000941653 0.000934826 -0.0007538
312 1 2.28369 9.23613 7.07084 -1.417e-13 -7.67802e-11 -2.93611e-16
69 1 6.85529 11.8755 5.65641 1.11226e-15 -1.63748e-14 -8.55095e-15
163 1 4.56949 10.5558 4.24198 1.02261e-13 7.67038e-11 4.51039e-15
188 1 4.56949 10.5558 7.07084 1.07926e-13 7.67187e-11 1.44985e-15
288 1 6.85529 9.23613 4.24198 -1.58115e-13 -7.66363e-11 -3.51401e-15
313 1 6.85529 9.23613 7.07084 -1.45237e-13 -7.66323e-11 5.6409e-15
70 1 11.4269 11.8755 5.65641 -2.13613e-14 6.79807e-14 -9.77501e-15
164 1 9.14109 10.5558 4.24198 1.56097e-13 7.65612e-11 -6.92201e-15
189 1 9.14109 10.5558 7.07084 1.439e-13 7.65667e-11 2.14088e-15
289 1 11.4269 9.23613 4.24198 1.51798e-13 -7.66515e-11 -8.12566e-15
314 1 11.4269 9.23613 7.07084 1.51137e-13 -7.66568e-11 6.14296e-15
165 1 13.7127 10.5558 4.24198 -8.50778e-14 7.66474e-11 -1.03189e-14
190 1 13.7127 10.5558 7.07084 -8.73746e-14 7.66589e-11 9.6744e-15
66 1 15.9985 11.8755 5.65641 -1.7375e-14 2.97956e-14 -1.75852e-14
290 1 15.9985 9.23613 4.24198 -1.33671e-13 -7.66348e-11 -9.53104e-15
315 1 15.9985 9.23613 7.07084 -1.16851e-13 -7.66381e-11 6.12964e-15
72 1 -4.57372 15.8347 5.65641 -1.03612e-13 -1.5505e-14 -9.38938e-15
166 1 -6.85952 14.515 4.24198 5.59136e-14 7.66194e-11 -1.10636e-14
191 1 -6.85952 14.515 7.07084 5.39152e-14 7.66138e-11 1.19623e-14
291 1 -4.57372 13.1953 4.24198 -6.75571e-14 -7.66698e-11 -4.63667e-15
316 1 -4.57372 13.1953 7.07084 -6.99441e-14 -7.66846e-11 1.11639e-14
73 1 -0.00211418 15.8347 5.65641 -4.64858e-14 4.87641e-14 -1.25317e-14
167 1 -2.28792 14.515 4.24198 9.17501e-14 7.66807e-11 -5.23345e-15
192 1 -2.28792 14.515 7.07084 9.38834e-14 7.66646e-11 5.47797e-15
292 1 -0.00211418 13.1953 4.24198 -7.81654e-14 -7.66698e-11 -3.95458e-15
317 1 -0.00211418 13.1953 7.07084 -8.26155e-14 -7.66868e-11 8.20221e-15
168 1 2.28369 14.515 4.24198 1.30301e-13 7.67222e-11 -9.03564e-15
193 1 2.28369 14.515 7.07084 1.45236e-13 7.66998e-11 6.89224e-15
74 1 4.56949 15.8347 5.65641 3.15688e-14 -2.91014e-14 -8.58853e-15
169 1 6.85529 14.515 4.24198 1.81532e-13 7.66286e-11 -1.0323e-14
194 1 6.85529 14.515 7.07084 1.9404e-13 7.66215e-11 6.73532e-15
293 1 4.56949 13.1953 4.24198 -1.03416e-13 -7.66743e-11 -6.51054e-15
318 1 4.56949 13.1953 7.07084 -1.23842e-13 -7.66739e-11 8.5276e-15
75 1 9.14109 15.8347 5.65641 -2.56829e-06 -4.47471e-06 4.29141e-08
170 1 11.4269 14.515 4.24198 1.9347e-13 7.68883e-11 -1.24615e-14
195 1 11.4269 14.515 7.07084 2.034e-13 7.68576e-11 1.71456e-14
294 1 9.14109 13.1953 4.24198 -3.80658e-13 -7.6463e-11 -5.48784e-15
319 1 9.14109 13.1953 7.07084 -3.86008e-13 -7.64649e-11 6.66831e-15
71 1 13.7127 15.8347 5.65641 2.57166e-06 -4.45235e-06 -4.04891e-09
295 1 13.7127 13.1953 4.24198 2.02338e-14 -7.66462e-11 -1.25196e-14
320 1 13.7127 13.1953 7.07084 1.39611e-14 -7.66412e-11 1.51898e-14
171 1 -9.14532 18.4741 4.24198 -0.00141942 0.119259 -0.0127993
196 1 -9.14532 18.4741 7.07084 0.00100287 0.0155647 -0.0160548
52 1 -6.85952 19.7938 5.65641 0.040873 -0.0237187 0.0262948
172 1 -4.57372 18.4741 4.24198 7.92476e-14 7.67199e-11 -9.50093e-15
197 1 -4.57372 18.4741 7.07084 7.53538e-14 7.67258e-11 6.51005e-15
296 1 -6.85952 17.1544 4.24198 0.00287413 -0.00565864 -0.000725697
321 1 -6.85952 17.1544 7.07084 -5.19862e-14 -7.66629e-11 1.19406e-14
53 1 -2.28792 19.7938 5.65641 1.61413e-14 -8.65974e-15 -5.33192e-15
173 1 -0.00211418 18.4741 4.24198 1.0783e-13 7.67119e-11 2.99366e-16
198 1 -0.00211418 18.4741 7.07084 1.23653e-13 7.67147e-11 -3.3057e-15
297 1 -2.28792 17.1544 4.24198 -2.75415e-13 -7.67457e-11 -5.05434e-15
322 1 -2.28792 17.1544 7.07084 -2.76949e-13 -7.67411e-11 5.91405e-15
54 1 2.28369 19.7938 5.65641 -6.81262e-15 -7.18176e-14 -8.53665e-15
298 1 2.28369 17.1544 4.24198 7.25297e-14 -7.67821e-11 -4.31006e-15
323 1 2.28369 17.1544 7.07084 5.75879e-14 -7.67703e-11 -4.14283e-16
55 1 6.85529 19.7938 5.65641 0.00577844 0.00346664 -0.0040515
174 1 4.56949 18.4741 4.24198 1.31805e-13 7.64367e-11 -2.89662e-15
199 1 4.56949 18.4741 7.07084 1.2419e-13 7.6453e-11 -1.25574e-15
299 1 6.85529 17.1544 4.24198 -0.000111731 4.48503e-05 0.000250814
324 1 6.85529 17.1544 7.07084 -3.37607e-13 -7.67969e-11 5.88986e-15
51 1 11.4269 19.7938 5.65641 -0.0366092 -0.0234771 0.032182
175 1 9.14109 18.4741 4.24198 0.00456624 0.00171374 -0.00699197
200 1 9.14109 18.4741 7.07084 0.000234874 -0.00412328 0.00413188
300 1 11.4269 17.1544 4.24198 -0.00813467 -0.00842532 -0.00175081
325 1 11.4269 17.1544 7.07084 -4.45592e-08 1.07885e-05 -4.34305e-06
201 1 -0.00211418 2.63759 9.8997 -0.0022862 -0.000730009 0.00155395
82 1 2.28369 3.95729 8.48527 8.02162e-06 4.86968e-06 3.92627e-05
326 1 2.28369 1.31788 9.8997 -0.0105384 0.00582123 0.00515217
83 1 6.85529 3.95729 8.48527 4.38127e-14 2.04212e-14 8.931e-16
202 1 4.56949 2.63759 9.8997 -0.00177092 -0.00125111 0.0019504
327 1 6.85529 1.31788 9.8997 -3.00606e-13 -7.65475e-11 3.00506e-15
84 1 11.4269 3.95729 8.48527 -4.3179e-14 -1.26704e-14 1.38936e-15
203 1 9.14109 2.63759 9.8997 5.28545e-14 7.67114e-11 -2.97827e-16
328 1 11.4269 1.31788 9.8997 5.14716e-14 -7.65564e-11 3.41995e-15
204 1 13.7127 2.63759 9.8997 5.81994e-14 7.66011e-11 1.70098e-15
85 1 15.9985 3.95729 8.48527 -6.92427e-14 -8.2219e-14 1.97455e-15
205 1 18.2843 2.63759 9.8997 -0.015192 0.0110403 -0.0187469
329 1 15.9985 1.31788 9.8997 -3.82744e-13 -7.65872e-11 2.71802e-15
81 1 20.5701 3.95729 8.48527 3.33646e-08 -2.86189e-08 1.13132e-07
330 1 20.5701 1.31788 9.8997 0.0142739 0.00852893 0.0550782
87 1 -0.00211418 7.91642 8.48527 -6.95721e-13 -1.22382e-10 3.25816e-08
206 1 -2.28792 6.59671 9.8997 -0.00674776 0.00263602 -0.00700075
331 1 -0.00211418 5.277 9.8997 -0.000494218 -0.0143023 0.03058
207 1 2.28369 6.59671 9.8997 0.00900213 0.00406313 -0.0100599
88 1 4.56949 7.91642 8.48527 -5.09026e-14 5.83048e-14 9.3094e-15
208 1 6.85529 6.59671 9.8997 -1.07685e-14 7.67093e-11 3.59658e-15
332 1 4.56949 5.277 9.8997 -3.03718e-08 -1.76061e-08 6.08482e-08
89 1 9.14109 7.91642 8.48527 1.86009e-14 -2.88962e-14 4.31267e-15
209 1 11.4269 6.59671 9.8997 3.36948e-13 7.65777e-11 1.3425e-15
333 1 9.14109 5.277 9.8997 4.15158e-14 -7.67639e-11 2.1191e-15
90 1 13.7127 7.91642 8.48527 8.12738e-14 3.61699e-14 2.35883e-15
334 1 13.7127 5.277 9.8997 -3.74065e-13 -7.66433e-11 2.77848e-15
86 1 18.2843 7.91642 8.48527 4.35763e-15 5.37279e-14 1.2022e-14
210 1 15.9985 6.59671 9.8997 -2.08653e-14 7.67363e-11 2.04676e-15
335 1 18.2843 5.277 9.8997 -1.37475e-07 7.92895e-08 -2.52405e-07
211 1 -4.57372 10.5558 9.8997 -6.95832e-14 7.66927e-11 -5.58361e-15
92 1 -2.28792 11.8755 8.48527 3.0892e-14 -6.29774e-14 1.3336e-14
212 1 -0.00211418 10.5558 9.8997 2.3949e-13 7.66385e-11 -5.71728e-15
336 1 -2.28792 9.23613 9.8997 -8.81517e-14 -7.66964e-11 -4.7682e-15
93 1 2.28369 11.8755 8.48527 7.30593e-14 -1.61572e-15 1.18448e-14
337 1 2.28369 9.23613 9.8997 -1.48033e-13 -7.67737e-11 4.42153e-16
94 1 6.85529 11.8755 8.48527 -5.32594e-16 -2.72552e-14 1.18288e-14
213 1 4.56949 10.5558 9.8997 1.1413e-13 7.67174e-11 -5.30157e-15
338 1 6.85529 9.23613 9.8997 -1.71294e-13 -7.66605e-11 -1.16749e-15
95 1 11.4269 11.8755 8.48527 -2.72841e-14 5.56256e-14 5.40541e-15
214 1 9.14109 10.5558 9.8997 1.81072e-13 7.65739e-11 -3.01562e-15
339 1 11.4269 9.23613 9.8997 1.36739e-13 -7.66546e-11 3.69167e-16
215 1 13.7127 10.5558 9.8997 -6.07431e-14 7.6649e-11 4.77721e-16
91 1 15.9985 11.8755 8.48527 -2.02893e-14 2.0324e-14 -3.11492e-15
340 1 15.9985 9.23613 9.8997 -1.48936e-13 -7.66328e-11 3.99818e-15
97 1 -4.57372 15.8347 8.48527 -9.90666e-14 -2.03448e-14 8.24946e-15
216 1 -6.85952 14.515 9.8997 6.04655e-14 7.65856e-11 -3.07254e-15
341 1 -4.57372 13.1953 9.8997 -1.07414e-13 -7.66852e-11 -4.74366e-15
98 1 -0.00211418 15.8347 8.48527 -4.69058e-14 4.94581e-14 -6.4705e-16
217 1 -2.28792 14.515 9.8997 1.24344e-13 7.66639e-11 -3.51104e-15
342 1 -0.00211418 13.1953 9.8997 -1.14395e-13 -7.66952e-11 -4.27727e-15
218 1 2.28369 14.515 9.8997 1.48183e-13 7.67222e-11 -5.92946e-16
99 1 4.56949 15.8347 8.48527 2.9008e-14 -3.08838e-14 3.39927e-15
219 1 6.85529 14.515 9.8997 2.04488e-13 7.66347e-11 -3.32027e-16
343 1 4.56949 13.1953 9.8997 -1.1751e-13 -7.66925e-11 -3.06808e-15
100 1 9.14109 15.8347 8.48527 -5.96418e-14 2.63168e-14 -4.66066e-15
220 1 11.4269 14.515 9.8997 1.92221e-13 7.68286e-11 -7.46169e-15
344 1 9.14109 13.1953 9.8997 -3.69302e-13 -7.64571e-11 6.01624e-17
96 1 13.7127 15.8347 8.48527 5.36793e-14 1.38917e-14 1.93065e-15
345 1 13.7127 13.1953 9.8997 2.14273e-14 -7.66356e-11 -2.11059e-15
221 1 -9.14532 18.4741 9.8997 0.000133118 0.00354781 0.00355921
77 1 -6.85952 19.7938 8.48527 4.59873e-08 -2.65511e-08 7.67275e-08
222 1 -4.57372 18.4741 9.8997 8.96855e-14 7.6708e-11 -4.69027e-15
346 1 -6.85952 17.1544 9.8997 -5.67879e-14 -7.66503e-11 -4.10027e-15
78 1 -2.28792 19.7938 8.48527 2.06563e-14 9.4369e-15 1.18892e-14
223 1 -0.00211418 18.4741 9.8997 1.05259e-13 7.67108e-11 1.3823e-15
347 1 -2.28792 17.1544 9.8997 -2.8998e-13 -7.67268e-11 -9.13998e-16
79 1 2.28369 19.7938 8.48527 -6.08157e-15 -6.11733e-14 1.97585e-14
348 1 2.28369 17.1544 9.8997 6.27032e-14 -7.6786e-11 1.7173e-15
80 1 6.85529 19.7938 8.48527 2.06338e-09 1.19166e-09 -7.30343e-09
224 1 4.56949 18.4741 9.8997 1.37655e-13 7.64458e-11 -1.71763e-15
349 1 6.85529 17.1544 9.8997 -3.39931e-13 -7.68022e-11 -3.37686e-15
76 1 11.4269 19.7938 8.48527 -1.08354e-07 -1.51819e-06 6.30451e-06
225 1 9.14109 18.4741 9.8997 0.00192116 -0.0197684 -0.0199985
350 1 11.4269 17.1544 9.8997 -9.43459e-12 -4.24423e-08 -6.50454e-08
226 1 -0.00211418 2.63759 12.7286 -0.211412 0.0115549 0.14975
7 1 2.28369 3.95729 14.143 0.0558302 0.0431991 -0.0402838
107 1 2.28369 3.95729 11.3141 0.0349338 0.00935341 -0.0235019
351 1 2.28369 1.31788 12.7286 -0.0318516 0.0228273 0.0313048
8 1 6.85529 3.95729 14.143 0.0190087 0.0100711 -0.010816
108 1 6.85529 3.95729 11.3141 3.06018e-08 1.83086e-08 -5.8868e-08
227 1 4.56949 2.63759 12.7286 -0.00898261 -0.00703818 0.012555
352 1 6.85529 1.31788 12.7286 -0.00277353 0.00182028 0.0038994
9 1 11.4269 3.95729 14.143 -4.98364e-14 -1.38362e-14 3.4984e-14
109 1 11.4269 3.95729 11.3141 -4.52804e-14 -1.3177e-14 -5.8189e-15
228 1 9.14109 2.63759 12.7286 4.43796e-14 7.66981e-11 -4.79495e-15
353 1 11.4269 1.31788 12.7286 5.15857e-14 -7.6565e-11 -2.62203e-15
229 1 13.7127 2.63759 12.7286 6.9252e-14 7.65946e-11 2.43551e-15
10 1 15.9985 3.95729 14.143 -0.0105921 5.92225e-05 -8.02542e-05
110 1 15.9985 3.95729 11.3141 -1.30196e-08 8.15756e-09 -2.62295e-08
230 1 18.2843 2.63759 12.7286 0.0213315 -0.00111642 0.0196765
354 1 15.9985 1.31788 12.7286 -0.00110277 -0.000340662 -0.000731293
6 1 20.5701 3.95729 14.143 -0.0408465 0.146326 0.0359748
106 1 20.5701 3.95729 11.3141 -0.0370102 0.0418447 -0.0390658
355 1 20.5701 1.31788 12.7286 0.148472 0.0847444 -0.0696465
12 1 -0.00211418 7.91642 14.143 -0.00624659 0.0166165 0.000500377
112 1 -0.00211418 7.91642 11.3141 -0.000236821 -0.0195749 0.0109847
231 1 -2.28792 6.59671 12.7286 -0.0114133 -0.00193668 0.00772922
356 1 -0.00211418 5.277 12.7286 0.00367623 -0.136648 -0.0333061
232 1 2.28369 6.59671 12.7286 0.0199329 0.01215 0.00493514
13 1 4.56949 7.91642 14.143 0.00715271 0.00477365 -0.00413277
113 1 4.56949 7.91642 11.3141 -1.0457e-08 -6.678e-09 1.8382e-08
233 1 6.85529 6.59671 12.7286 -5.54986e-15 7.67298e-11 -5.21805e-15
357 1 4.56949 5.277 12.7286 -0.00147634 0.000251797 -0.00235842
14 1 9.14109 7.91642 14.143 1.6164e-14 -3.35745e-14 2.65343e-14
114 1 9.14109 7.91642 11.3141 1.83485e-14 -3.56067e-14 -1.03432e-15
234 1 11.4269 6.59671 12.7286 3.48763e-13 7.65638e-11 -4.55885e-15
358 1 9.14109 5.277 12.7286 4.80263e-14 -7.67745e-11 -6.245e-15
15 1 13.7127 7.91642 14.143 7.82632e-14 3.61178e-14 3.26406e-14
115 1 13.7127 7.91642 11.3141 7.01911e-14 3.58334e-14 -6.48331e-15
359 1 13.7127 5.277 12.7286 -3.74113e-13 -7.66432e-11 -1.72085e-15
11 1 18.2843 7.91642 14.143 -0.00276492 0.00781878 0.00163184
111 1 18.2843 7.91642 11.3141 -1.4847e-08 7.93123e-09 -2.85917e-08
235 1 15.9985 6.59671 12.7286 -2.57155e-14 7.67464e-11 -5.90144e-16
360 1 18.2843 5.277 12.7286 0.0168044 -0.0115518 0.00973208
236 1 -4.57372 10.5558 12.7286 -6.95555e-14 7.66686e-11 -7.05686e-15
17 1 -2.28792 11.8755 14.143 3.11001e-14 -3.46494e-14 2.3328e-14
117 1 -2.28792 11.8755 11.3141 2.49731e-14 -4.89574e-14 -3.39973e-15
237 1 -0.00211418 10.5558 12.7286 2.43211e-13 7.66159e-11 3.26128e-16
361 1 -2.28792 9.23613 12.7286 9.03763e-05 6.57577e-05 -0.000243105
18 1 2.28369 11.8755 14.143 7.44181e-14 1.76373e-14 3.45141e-14
118 1 2.28369 11.8755 11.3141 7.88977e-14 2.29844e-14 -3.25732e-15
362 1 2.28369 9.23613 12.7286 -6.81789e-05 -0.000865211 0.000804691
19 1 6.85529 11.8755 14.143 5.3519e-15 -2.78915e-14 2.7256e-14
119 1 6.85529 11.8755 11.3141 2.21985e-15 -1.27895e-14 -2.74228e-15
238 1 4.56949 10.5558 12.7286 1.07229e-13 7.6705e-11 2.51882e-15
363 1 6.85529 9.23613 12.7286 -1.86976e-13 -7.66723e-11 -8.88178e-16
20 1 11.4269 11.8755 14.143 -1.72694e-14 5.73213e-14 4.41314e-14
120 1 11.4269 11.8755 11.3141 -2.05755e-14 5.33471e-14 -1.73976e-15
239 1 9.14109 10.5558 12.7286 1.9515e-13 7.65773e-11 -2.49106e-15
364 1 11.4269 9.23613 12.7286 1.39106e-13 -7.66434e-11 1.52656e-15
240 1 13.7127 10.5558 12.7286 -5.5983e-14 7.66432e-11 -1.56168e-15
16 1 15.9985 11.8755 14.143 -1.59595e-14 1.94705e-14 3.71665e-14
116 1 15.9985 11.8755 11.3141 -1.51962e-14 1.89848e-14 5.61461e-16
365 1 15.9985 9.23613 12.7286 -1.34781e-13 -7.66358e-11 3.47465e-15
22 1 -4.57372 15.8347 14.143 -9.81437e-14 -3.68733e-14 3.05799e-14
122 1 -4.57372 15.8347 11.3141 -9.15656e-14 -2.97297e-14 -3.39767e-15
241 1 -6.85952 14.515 12.7286 3.47222e-14 7.65902e-11 2.21264e-15
366 1 -4.57372 13.1953 12.7286 -1.05471e-13 -7.66773e-11 2.82984e-16
23 1 -0.00211418 15.8347 14.143 -4.97079e-14 4.82901e-14 3.9288e-14
123 1 -0.00211418 15.8347 11.3141 -3.54545e-14 4.98512e-14 -6.70048e-15
242 1 -2.28792 14.515 12.7286 1.25548e-13 7.668e-11 -1.69309e-15
367 1 -0.00211418 13.1953 12.7286 -1.01083e-13 -7.66745e-11 2.41474e-15
243 1 2.28369 14.515 12.7286 1.25181e-13 7.67414e-11 -7.29278e-15
24 1 4.56949 15.8347 14.143 2.47225e-14 -4.20629e-14 3.76921e-14
124 1 4.56949 15.8347 11.3141 2.79261e-14 -4.20721e-14 -1.36017e-15
244 1 6.85529 14.515 12.7286 1.97836e-13 7.66519e-11 -6.3699e-15
368 1 4.56949 13.1953 12.7286 -1.06382e-13 -7.66895e-11 -3.48332e-15
25 1 9.14109 15.8347 14.143 -0.000230916 0.0026653 0.00159794
125 1 9.14109 15.8347 11.3141 5.54843e-10 -1.68247e-08 -2.85937e-08
245 1 11.4269 14.515 12.7286 1.67137e-13 7.68492e-11 -2.9427e-16
369 1 9.14109 13.1953 12.7286 -3.43701e-13 -7.64489e-11 -3.21965e-15
21 1 13.7127 15.8347 14.143 0.000565848 -0.00865687 -0.00410415
121 1 13.7127 15.8347 11.3141 -5.54823e-10 1.24033e-08 1.83953e-08
370 1 13.7127 13.1953 12.7286 4.53526e-14 -7.66239e-11 -2.02269e-15
246 1 -9.14532 18.4741 12.7286 0.00191364 0.0171592 0.0147606
2 1 -6.85952 19.7938 14.143 0.0549531 -0.0451175 -0.0403022
102 1 -6.85952 19.7938 11.3141 0.00505758 -0.00303895 -0.00353963
247 1 -4.57372 18.4741 12.7286 8.50685e-14 7.6692e-11 -2.7426e-15
371 1 -6.85952 17.1544 12.7286 -0.000461518 7.4596e-05 0.000769158
3 1 -2.28792 19.7938 14.143 1.66409e-14 4.78784e-15 4.15761e-14
103 1 -2.28792 19.7938 11.3141 1.82061e-14 8.88178e-15 -4.51457e-15
248 1 -0.00211418 18.4741 12.7286 9.15136e-14 7.672e-11 -9.70578e-16
372 1 -2.28792 17.1544 12.7286 -2.92391e-13 -7.67241e-11 -3.42764e-15
4 1 2.28369 19.7938 14.143 -8.3781e-15 -8.31557e-14 3.18634e-14
104 1 2.28369 19.7938 11.3141 -1.16041e-14 -7.9825e-14 -4.17685e-15
373 1 2.28369 17.1544 12.7286 6.17477e-14 -7.68115e-11 -3.14413e-15
5 1 6.85529 19.7938 14.143 -0.0350606 -0.0283907 0.00163518
105 1 6.85529 19.7938 11.3141 0.0222892 0.0129978 0.0154069
249 1 4.56949 18.4741 12.7286 1.64216e-13 7.64365e-11 -1.91774e-15
374 1 6.85529 17.1544 12.7286 -0.00045156 -0.000568695 -0.000226335
1 1 11.4269 19.7938 14.143 0.0978477 -0.186948 -0.0639677
101 1 11.4269 19.7938 11.3141 0.0270695 -0.0467105 -0.0271716
250 1 9.14109 18.4741 12.7286 0.00171344 0.0112756 0.00859649
375 1 11.4269 17.1544 12.7286 -0.00444568 0.00421435 -9.74998e-05
