ITEM: TIMESTEP
0
ITEM: NUMBER OF ATOMS
81
ITEM: BOX BOUNDS xy xz yz pp pp pp
-6.8053744248800410e+00 1.3610748849760078e+01 -6.8053744248800410e+00
0.0000000000000000e+00 1.1787254268406420e+01 0.0000000000000000e+00
0.0000000000000000e+00 8.4221905085005275e+00 0.0000000000000000e+00
ITEM: ATOMS id type x y z fx fy fz
1 1 0.0152293 0.0131889 0.00942372 0.120843 0.0353694 0.0774914
10 1 0.0152293 0.0131889 2.81682 0.16655 0.0444929 0.0994488
28 1 0.440411 2.63258 1.67622 -3.54831 -1.05887 -3.0849
2 1 4.55215 0.0131889 0.00942372 -0.0178352 0.00289398 -0.00179679
11 1 4.55215 0.0131889 2.81682 -0.0547086 0.0539503 0.00458493
29 1 4.55215 2.63258 1.41312 0.108992 -0.0144684 0.0210486
55 1 2.28369 1.32288 1.41312 0.956189 -1.03349 -0.175499
3 1 9.08906 0.0131889 0.00942372 0.011157 -0.00123449 0.0108
12 1 9.08906 0.0131889 2.81682 0.0106738 -0.00394545 -0.0176942
30 1 9.08906 2.63258 1.41312 0.196201 -0.0283651 -0.0245312
56 1 6.8206 1.32288 1.41312 -0.301608 0.0819103 0.00111704
57 1 11.3575 1.32288 1.41312 0.370443 0.258304 0.163324
4 1 -2.25323 3.94227 0.00942372 0.0910536 0.0293578 0.0773498
13 1 -2.25323 3.94227 2.81682 0.302299 -0.0292191 -0.0350555
31 1 -2.25323 6.56166 1.41312 0.0949638 -0.04769 -0.0144203
58 1 0.0152293 5.25197 1.41312 -0.298634 0.421197 0.0814462
5 1 2.28369 3.94227 0.00942372 0.187072 0.00349494 0.0761018
14 1 2.28369 3.94227 2.81682 1.62015 1.14943 1.04917
32 1 2.28369 6.56166 1.41312 0.153999 0.162834 -0.00562098
59 1 4.55215 5.25197 1.41312 -0.0713498 -0.00224806 0.0324205
6 1 6.8206 3.94227 0.00942372 0.0334651 0.0335261 -0.036069
15 1 6.8206 3.94227 2.81682 0.0862669 0.0304192 0.0329453
33 1 6.8206 6.56166 1.41312 0.0154171 0.00728828 0.000457297
60 1 9.08906 5.25197 1.41312 0.00561643 -0.0359081 0.00955689
7 1 -4.52169 7.87136 0.00942372 -0.00120811 0.00343279 0.000628795
16 1 -4.52169 7.87136 2.81682 -0.00558199 0.00817161 0.000372452
34 1 -4.52169 10.4907 1.41312 0.162188 -0.0550816 -0.00537017
8 1 0.0152293 7.87136 0.00942372 -0.00694642 0.00119474 0.00272649
17 1 0.0152293 7.87136 2.81682 0.000753145 -0.0333657 0.00604341
35 1 0.0152293 10.4907 1.41312 0.0164214 -0.00787977 0.0004448
61 1 -2.25323 9.18105 1.41312 -0.09854 0.137945 0.000535531
9 1 4.55215 7.87136 0.00942372 -0.00368883 -0.00692718 -0.00155084
18 1 4.55215 7.87136 2.81682 0.0350795 0.0606156 0.000597718
36 1 4.55215 10.4907 1.41312 0.0291707 0.0337575 -0.0201285
62 1 2.28369 9.18105 1.41312 -0.0402144 -0.131177 0.00100269
63 1 6.8206 9.18105 1.41312 -0.0761013 -0.00899855 0.0165542
19 1 0.0152293 0.0131889 5.62422 -0.0375301 -0.0692141 0.147846
37 1 0.0152293 2.63258 4.22052 -0.179085 0.0462133 1.43398
46 1 0.0152293 2.63258 7.02792 0.22454 -0.0326444 0.354743
20 1 4.55215 0.0131889 5.62422 -0.0123261 0.00877696 -0.00406543
38 1 4.55215 2.63258 4.22052 -0.0309858 0.0537513 -0.0510147
47 1 4.55215 2.63258 7.02792 -0.012614 0.0309128 -0.0229305
64 1 2.28369 1.32288 4.22052 0.0609997 0.0107161 -0.0425187
73 1 2.28369 1.32288 7.02792 0.00550036 0.0789765 0.0413719
21 1 9.08906 0.0131889 5.62422 0.0334113 0.0167315 0.029994
39 1 9.08906 2.63258 4.22052 -0.0245702 -0.0247147 -0.0107876
48 1 9.08906 2.63258 7.02792 -0.0270993 -0.0211209 -0.00472675
65 1 6.8206 1.32288 4.22052 -0.030937 -0.00134632 0.0058103
74 1 6.8206 1.32288 7.02792 0.00049619 -0.00163093 -0.00434282
66 1 11.3575 1.32288 4.22052 -0.099497 -0.0824626 0.0679624
75 1 11.3575 1.32288 7.02792 -0.259054 -0.130323 -0.245259
22 1 -2.25323 3.94227 5.62422 0.0151876 -0.0182072 -0.00373751
40 1 -2.25323 6.56166 4.22052 0.00496094 0.0373134 0.00524175
49 1 -2.25323 6.56166 7.02792 0.0555389 0.00809098 -0.00979599
67 1 0.0152293 5.25197 4.22052 0.0811272 0.0193349 -0.0421382
76 1 0.0152293 5.25197 7.02792 0.0368372 0.126135 -0.0976542
23 1 2.28369 3.94227 5.62422 0.0724879 0.0716475 0.258482
41 1 2.28369 6.56166 4.22052 0.0539773 -0.0341596 -0.0295054
50 1 2.28369 6.56166 7.02792 0.0158138 -0.0451278 -0.00169277
68 1 4.55215 5.25197 4.22052 -0.0462515 -0.0109204 -0.0135047
77 1 4.55215 5.25197 7.02792 -0.047613 -0.0101727 -0.0287556
24 1 6.8206 3.94227 5.62422 -0.00130511 0.00105265 0.000602706
42 1 6.8206 6.56166 4.22052 -0.000238005 7.11959e-05 -0.000312954
51 1 6.8206 6.56166 7.02792 -0.000326043 -0.000193666 0.000296866
69 1 9.08906 5.25197 4.22052 -0.0385626 0.0140478 0.00229372
78 1 9.08906 5.25197 7.02792 -0.0315703 0.00430138 -0.020979
25 1 -4.52169 7.87136 5.62422 -0.00124681 0.00141746 0.000113347
43 1 -4.52169 10.4907 4.22052 0.0192364 -0.0433815 -0.00067599
52 1 -4.52169 10.4907 7.02792 0.0277943 -0.00982179 -0.02074
26 1 0.0152293 7.87136 5.62422 0.0034778 0.00429515 -0.00217825
44 1 0.0152293 10.4907 4.22052 7.29716e-05 -0.000256163 -4.63623e-05
53 1 0.0152293 10.4907 7.02792 -6.90771e-15 -6.11007e-11 -2.47458e-14
70 1 -2.25323 9.18105 4.22052 -0.000359065 0.0115702 0.0101871
79 1 -2.25323 9.18105 7.02792 -0.000958517 0.0117947 -0.00723772
27 1 4.55215 7.87136 5.62422 0.00041315 -6.04569e-05 0.000540114
45 1 4.55215 10.4907 4.22052 -0.00825021 -0.0356638 -0.0222979
54 1 4.55215 10.4907 7.02792 -0.00933493 -0.0325379 0.00123371
71 1 2.28369 9.18105 4.22052 -0.00845937 -0.00894819 0.00952606
80 1 2.28369 9.18105 7.02792 0.00570318 0.0154042 -0.00763986
72 1 6.8206 9.18105 4.22052 -0.0284264 -0.0164117 -0.00353823
81 1 6.8206 9.18105 7.02792 -0.0312193 -0.00394623 -0.0156851
