(written by ASE)

128 atoms
2 atom types

0.0            10.000701716  xlo xhi
0.0      8.6608617415999998  ylo yhi
0.0      8.1655387580000003  zlo zhi
            5.000350858             5.000350858      2.8869539139999998  xy xz yz

Masses

1 196.9666 # Au
2 12.0110 # C


Atoms # atomic

     1   2      5.0503381300999992      2.8869465653999988      2.0413794932999996
     2   2      7.5005135590999998      2.8869465653999988      2.0413794932999996
     3   2      10.000688988099999      2.8869465653999988      2.0413794932999996
     4   2      12.500864417099999      2.8869465653999988      2.0413794932999996
     5   2      6.2504258446000014      5.0521620007999992      2.0413794932999991
     6   2      8.7506012735999992      5.0521620007999992      2.0413794932999991
     7   2           11.2507767026      5.0521620007999992      2.0413794932999991
     8   2           13.7509521316      5.0521620007999992      2.0413794932999991
     9   2      7.5005135591000007      7.2173774361999996      2.0413794932999991
    10   2           10.0006889881      7.2173774361999996      2.0413794932999991
    11   2      12.500864417099999      7.2173774361999996      2.0413794932999991
    12   2      15.001039846099999      7.2173774361999996      2.0413794932999991
    13   2      8.7506012735999992            9.3825928716      2.0413794932999991
    14   2           11.2507767026            9.3825928716      2.0413794932999991
    15   2      13.750952131599998            9.3825928716      2.0413794932999991
    16   2      16.251127560599993            9.3825928716      2.0413794932999991
    17   2      6.2504258446000005            3.6086850439      4.0827641828000001
    18   2       8.750601273600001            3.6086850439      4.0827641828000001
    19   2      11.250776702599998            3.6086850439      4.0827641828000001
    20   2      13.750952131599997            3.6086850439      4.0827641828000001
    21   2      7.5005135591000016      5.7739004792999991      4.0827641828000001
    22   2           10.0006889881      5.7739004792999991      4.0827641828000001
    23   2      12.500864417099999      5.7739004792999991      4.0827641828000001
    24   2      15.001039846099999      5.7739004792999991      4.0827641828000001
    25   2       8.750601273600001      7.9391159146999994      4.0827641828000001
    26   2           11.2507767026      7.9391159146999994      4.0827641828000001
    27   2           13.7509521316      7.9391159146999994      4.0827641828000001
    28   2      16.251127560600001      7.9391159146999994      4.0827641828000001
    29   2           10.0006889881      10.104331350099999      4.0827641827999992
    30   2      12.500864417099999      10.104331350099999      4.0827641827999992
    31   2      15.001039846099999      10.104331350099999      4.0827641827999992
    32   2      17.501215275099998      10.104331350099999      4.0827641827999992
    33   2      7.5005135590999998      4.3304235223999985      6.1241488723000002
    34   2      10.000688988099999      4.3304235223999985      6.1241488723000002
    35   2      12.500864417099999      4.3304235223999985      6.1241488723000002
    36   2      15.001039846099999      4.3304235223999985      6.1241488723000002
    37   2       8.750601273600001      6.4956389577999989      6.1241488723000002
    38   2           11.2507767026      6.4956389577999989      6.1241488723000002
    39   2           13.7509521316      6.4956389577999989      6.1241488723000002
    40   2      16.251127560600001      6.4956389577999989      6.1241488723000002
    41   2           10.0006889881      8.6608543931999993      6.1241488722999993
    42   2      12.500864417100001      8.6608543931999993      6.1241488722999993
    43   2      15.001039846100003      8.6608543931999993      6.1241488722999993
    44   2      17.501215275099998      8.6608543931999993      6.1241488722999993
    45   2           11.2507767026           10.8260698286      6.1241488722999993
    46   2           13.7509521316           10.8260698286      6.1241488722999993
    47   2      16.251127560599997           10.8260698286      6.1241488722999993
    48   2      18.751302989599999           10.8260698286      6.1241488722999993
    49   2       8.750601273600001      5.0521620009000001      8.1655335618000002
    50   2      11.250776702600001      5.0521620009000001      8.1655335618000002
    51   2           13.7509521316      5.0521620009000001      8.1655335618000002
    52   2      16.251127560600001      5.0521620009000001      8.1655335618000002
    53   2           10.0006889881      7.2173774362999996      8.1655335618000002
    54   2      12.500864417100001      7.2173774362999996      8.1655335618000002
    55   2      15.001039846099999      7.2173774362999996      8.1655335618000002
    56   2      17.501215275100005      7.2173774362999996      8.1655335618000002
    57   2      11.250776702600001            9.3825928717      8.1655335618000002
    58   2           13.7509521316            9.3825928717      8.1655335618000002
    59   2      16.251127560600001            9.3825928717      8.1655335618000002
    60   2      18.751302989599999            9.3825928717      8.1655335618000002
    61   2      12.500864417100001      11.547808307099999      8.1655335618000002
    62   2      15.001039846099999      11.547808307099999      8.1655335618000002
    63   2      17.501215275100002      11.547808307099999      8.1655335618000002
    64   2           20.0013907041      11.547808307099999      8.1655335618000002
    65   2      1.2500756936999999     0.72173153829999992     0.51034126489999965
    66   2      3.7502511226999991     0.72173153829999992     0.51034126489999965
    67   2      6.2504265517000004     0.72173153829999992     0.51034126489999965
    68   2      8.7506019807000044     0.72173153829999992     0.51034126489999965
    69   2      2.5001634082000002      2.8869469736999998     0.51034126489999954
    70   2      5.0003388372000002      2.8869469736999998     0.51034126489999954
    71   2      7.5005142662000015      2.8869469736999998     0.51034126489999954
    72   2      10.000689695200004      2.8869469736999998     0.51034126489999954
    73   2      3.7502511226999991      5.0521624091000001     0.51034126489999942
    74   2      6.2504265516999995      5.0521624091000001     0.51034126489999942
    75   2      8.7506019807000008      5.0521624091000001     0.51034126489999942
    76   2      11.250777409700001      5.0521624091000001     0.51034126489999942
    77   2      5.0003388371999993      7.2173778445000014      0.5103412648999992
    78   2      7.5005142661999997      7.2173778445000014      0.5103412648999992
    79   2      10.000689695200004      7.2173778445000014      0.5103412648999992
    80   2      12.500865124200002      7.2173778445000014      0.5103412648999992
    81   2      2.5001634082000002      1.4434700167999999      2.5517259543999997
    82   2      5.0003388371999993      1.4434700167999999      2.5517259543999997
    83   2      7.5005142662000006      1.4434700167999999      2.5517259543999997
    84   2      10.000689695200002      1.4434700167999999      2.5517259543999997
    85   2      3.7502511227000004      3.6086854521999996      2.5517259543999997
    86   2      6.2504265517000004      3.6086854521999996      2.5517259543999997
    87   2      8.7506019807000008      3.6086854521999996      2.5517259543999997
    88   2      11.250777409700001      3.6086854521999996      2.5517259543999997
    89   2      5.0003388372000002            5.7739008876      2.5517259543999993
    90   2      7.5005142661999997            5.7739008876      2.5517259543999993
    91   2           10.0006896952            5.7739008876      2.5517259543999993
    92   2      12.500865124199999            5.7739008876      2.5517259543999993
    93   2      6.2504265517000004      7.9391163230000013      2.5517259543999993
    94   2      8.7506019806999991      7.9391163230000013      2.5517259543999993
    95   2      11.250777409700003      7.9391163230000013      2.5517259543999993
    96   2      13.750952838700002      7.9391163230000013      2.5517259543999993
    97   2      3.7502511226999999      2.1652084952999999      4.5931106439000002
    98   2      6.2504265516999995      2.1652084952999999      4.5931106439000002
    99   2      8.7506019807000008      2.1652084952999999      4.5931106439000002
   100   2      11.250777409700001      2.1652084952999999      4.5931106439000002
   101   2      5.0003388372000002      4.3304239306999994      4.5931106439000002
   102   2      7.5005142662000006      4.3304239306999994      4.5931106439000002
   103   2           10.0006896952      4.3304239306999994      4.5931106439000002
   104   2      12.500865124199999      4.3304239306999994      4.5931106439000002
   105   2      6.2504265517000004      6.4956393660999998      4.5931106439000002
   106   2      8.7506019806999991      6.4956393660999998      4.5931106439000002
   107   2      11.250777409699998      6.4956393660999998      4.5931106439000002
   108   2      13.750952838699996      6.4956393660999998      4.5931106439000002
   109   2      7.5005142662000006      8.6608548014999993      4.5931106438999993
   110   2           10.0006896952      8.6608548014999993      4.5931106438999993
   111   2      12.500865124199999      8.6608548014999993      4.5931106438999993
   112   2      15.001040553200001      8.6608548014999993      4.5931106438999993
   113   2      5.0003388372000002      2.8869469737999998      6.6344953334000003
   114   2      7.5005142661999988      2.8869469737999998      6.6344953334000003
   115   2           10.0006896952      2.8869469737999998      6.6344953334000003
   116   2      12.500865124200004      2.8869469737999998      6.6344953334000003
   117   2      6.2504265516999995      5.0521624091999984      6.6344953334000003
   118   2      8.7506019806999991      5.0521624091999984      6.6344953334000003
   119   2      11.250777409700001      5.0521624091999984      6.6344953334000003
   120   2      13.750952838700004      5.0521624091999984      6.6344953334000003
   121   2      7.5005142661999988      7.2173778445999996      6.6344953334000003
   122   2           10.0006896952      7.2173778445999996      6.6344953334000003
   123   2      12.500865124199999      7.2173778445999996      6.6344953334000003
   124   2      15.001040553200003      7.2173778445999996      6.6344953334000003
   125   2      8.7506019807000008              9.38259328      6.6344953333999994
   126   2           11.2507774097              9.38259328      6.6344953333999994
   127   2      13.750952838700002              9.38259328      6.6344953333999994
   128   2      16.251128267699997              9.38259328      6.6344953333999994
