ITEM: TIMESTEP
0
ITEM: NUMBER OF ATOMS
128
ITEM: BOX BOUNDS xy xz yz pp pp pp
0.0000000000000000e+00 2.0001403432000000e+01 5.0003508580000000e+00
0.0000000000000000e+00 1.1547815655599999e+01 5.0003508580000000e+00
0.0000000000000000e+00 8.1655387580000003e+00 2.8869539139999998e+00
ITEM: ATOMS id type x y z fx fy fz
65 2 1.25008 0.721732 0.510341 0.000547157 0.000307109 0.000217159
66 2 3.75025 0.721732 0.510341 0.00136202 -0.0109146 -0.0077178
69 2 2.50016 2.88695 0.510341 -0.0268917 0.00473309 -0.0171384
73 2 3.75025 5.05216 0.510341 -0.0078741 0.0162939 -0.00998865
81 2 2.50016 1.44347 2.55173 -0.0268917 -0.0145806 0.0101752
85 2 3.75025 3.60869 2.55173 0.548813 -0.10312 -0.0729169
1 2 5.05034 2.88695 2.04138 -2.24554 -0.11072 -0.0782912
2 2 7.50051 2.88695 2.04138 0.151967 0.050162 0.0354699
5 2 6.25043 5.05216 2.04138 0.00401811 0.0368283 -0.00902241
17 2 6.25043 3.60869 4.08276 0.00401811 0.0037697 0.0377295
21 2 7.50051 5.7739 4.08276 0.000161822 0.00165387 0.00116946
67 2 6.25043 0.721732 0.510341 0.00196327 0.0120898 0.00854877
70 2 5.00034 2.88695 0.510341 0.358757 0.00820678 0.00953947
71 2 7.50051 2.88695 0.510341 -0.0269315 -0.00555296 0.0170756
74 2 6.25043 5.05216 0.510341 -0.00683986 -0.0173476 0.0091369
82 2 5.00034 1.44347 2.55173 0.358757 0.0117295 0.0045576
83 2 7.50051 1.44347 2.55173 -0.0269315 0.0142481 -0.0109273
86 2 6.25043 3.60869 2.55173 0.701651 0.210472 0.148826
89 2 5.00034 5.7739 2.55173 -0.00144485 0.00273804 0.000336592
90 2 7.50051 5.7739 2.55173 -0.00520499 -0.00559625 -0.00432658
3 2 10.0007 2.88695 2.04138 -0.00613813 -0.000172946 -0.000122291
6 2 8.7506 5.05216 2.04138 0.00107337 -0.00106445 -0.000126497
7 2 11.2508 5.05216 2.04138 0.00260717 0.000878575 0.000395165
18 2 8.7506 3.60869 4.08276 0.00107337 -0.00047408 -0.000961412
19 2 11.2508 3.60869 4.08276 0.00260717 0.000665424 0.000696606
22 2 10.0007 5.7739 4.08276 0.00199438 0.000327111 0.000231302
68 2 8.7506 0.721732 0.510341 0.00118616 -0.00097965 -0.000692717
72 2 10.0007 2.88695 0.510341 0.0084348 7.18076e-05 0.000216133
75 2 8.7506 5.05216 0.510341 -0.00196851 -0.00068221 0.00274039
76 2 11.2508 5.05216 0.510341 -0.00186632 0.0006617 -0.00252134
84 2 10.0007 1.44347 2.55173 0.0084348 0.000227707 -4.3429e-06
87 2 8.7506 3.60869 2.55173 -0.000777652 -0.0103614 -0.00732664
88 2 11.2508 3.60869 2.55173 -0.00125171 0.00734386 0.00519289
91 2 10.0007 5.7739 2.55173 0.00327621 -0.000415693 -0.000217112
4 2 12.5009 2.88695 2.04138 0.148441 -0.0430179 -0.0304183
8 2 13.751 5.05216 2.04138 0.00508542 -0.0429396 0.00924971
20 2 13.751 3.60869 4.08276 0.00508542 -0.00559248 -0.043567
23 2 12.5009 5.7739 4.08276 0.000693155 -0.00288001 -0.00203647
24 2 15.001 5.7739 4.08276 0.00129729 0.000486944 0.000344321
92 2 12.5009 5.7739 2.55173 -0.00613511 0.00742775 0.00420775
9 2 7.50051 7.21738 2.04138 -0.00364328 -0.00121798 0.000737064
77 2 5.00034 7.21738 0.510341 -0.000228271 0.000422599 1.45485e-05
78 2 7.50051 7.21738 0.510341 0.000341955 0.00440002 0.00122889
93 2 6.25043 7.93912 2.55173 0.00306253 0.00278175 -0.000199089
10 2 10.0007 7.21738 2.04138 0.00349493 0.000604181 2.69688e-05
13 2 8.7506 9.38259 2.04138 0.00353028 0.126562 -0.0420339
14 2 11.2508 9.38259 2.04138 0.00329457 -0.136571 0.0423609
25 2 8.7506 7.93912 4.08276 -0.000186508 0.000108019 0.00242499
26 2 11.2508 7.93912 4.08276 -0.000484568 0.000451991 -0.00233845
29 2 10.0007 10.1043 4.08276 -0.00361492 -0.000778035 0.000692888
79 2 10.0007 7.21738 0.510341 -0.000820039 -5.51877e-05 0.000189889
94 2 8.7506 7.93912 2.55173 0.00971853 0.00236814 0.00187551
95 2 11.2508 7.93912 2.55173 0.0102364 -0.00263124 -0.00242331
11 2 12.5009 7.21738 2.04138 -0.00330167 0.00142113 -0.000806062
12 2 15.001 7.21738 2.04138 0.00361177 0.000360202 6.39138e-05
15 2 13.751 9.38259 2.04138 0.00297888 0.000238819 -0.00174642
27 2 13.751 7.93912 4.08276 -0.000766902 0.00372052 -0.00020801
30 2 12.5009 10.1043 4.08276 0.00513924 -0.0021575 0.0029736
31 2 15.001 10.1043 4.08276 -0.00644791 0.000517632 -0.00088832
80 2 12.5009 7.21738 0.510341 0.000767698 -0.00486324 -0.000641538
96 2 13.751 7.93912 2.55173 0.00326 -0.00347619 -4.64138e-06
16 2 16.2511 9.38259 2.04138 0.00158639 -0.00134107 0.00192201
28 2 16.2511 7.93912 4.08276 -0.000227019 -0.00287457 -0.000339933
32 2 17.5012 10.1043 4.08276 0.00549597 0.00251467 -0.00365888
97 2 3.75025 2.16521 4.59311 -0.0078741 -0.00398608 0.0186916
33 2 7.50051 4.33042 6.12415 -0.00364328 0.000288918 -0.00139401
98 2 6.25043 2.16521 4.59311 -0.00683986 0.00283183 -0.0194011
101 2 5.00034 4.33042 4.59311 -0.00144485 0.00123002 0.00246925
102 2 7.50051 4.33042 4.59311 -0.00520499 -0.00594456 -0.003834
113 2 5.00034 2.88695 6.6345 -0.000228271 0.000154583 0.000393581
114 2 7.50051 2.88695 6.6345 0.000341955 0.00262528 0.00373875
117 2 6.25043 5.05216 6.6345 0.00306253 0.000739545 0.00268902
34 2 10.0007 4.33042 6.12415 0.00349493 0.000226821 0.000560638
49 2 8.7506 5.05216 8.16553 0.00353028 0.00255752 0.133335
50 2 11.2508 5.05216 8.16553 0.00329457 -0.00558526 -0.14288
99 2 8.7506 2.16521 4.59311 -0.00196851 0.00235626 -0.00155666
100 2 11.2508 2.16521 4.59311 -0.00186632 -0.00215658 0.0014643
103 2 10.0007 4.33042 4.59311 0.00327621 -0.00034326 -0.000319548
115 2 10.0007 2.88695 6.6345 -0.000820039 0.000160633 -0.000115327
118 2 8.7506 5.05216 6.6345 0.00971853 0.00255763 0.00160753
119 2 11.2508 5.05216 6.6345 0.0102364 -0.0031618 -0.00167299
35 2 12.5009 4.33042 6.12415 -0.00330167 -0.000286254 0.00160854
36 2 15.001 4.33042 6.12415 0.00361177 0.000180326 0.000318296
51 2 13.751 5.05216 8.16553 0.00297888 -0.00156694 0.0008073
104 2 12.5009 4.33042 4.59311 -0.00613511 0.00644302 0.00560037
116 2 12.5009 2.88695 6.6345 0.000767698 -0.00222593 -0.00437126
120 2 13.751 5.05216 6.6345 0.00326 -0.00116311 -0.00327583
52 2 16.2511 5.05216 8.16553 0.00158639 0.00136507 -0.00190505
105 2 6.25043 6.49564 4.59311 0.00171992 3.96286e-05 2.8022e-05
109 2 7.50051 8.66085 4.59311 -0.00207169 -0.00231689 0.00164261
121 2 7.50051 7.21738 6.6345 -0.00207169 0.000776367 -0.00273192
37 2 8.7506 6.49564 6.12415 -0.000186508 0.00232231 -0.00070649
38 2 11.2508 6.49564 6.12415 -0.000484568 -0.00205405 0.00120563
41 2 10.0007 8.66085 6.12415 -0.00397415 0.000146071 0.000103288
45 2 11.2508 10.8261 6.12415 -9.16221e-05 0.00216602 0.00159023
53 2 10.0007 7.21738 8.16553 -0.00361492 0.000393916 -0.000964502
57 2 11.2508 9.38259 8.16553 -9.16221e-05 0.00222129 0.00151206
106 2 8.7506 6.49564 4.59311 0.00154436 0.000868594 0.000614189
107 2 11.2508 6.49564 4.59311 0.00198828 -0.000858852 -0.0006073
110 2 10.0007 8.66085 4.59311 0.00507431 -0.000610127 0.000313989
122 2 10.0007 7.21738 6.6345 0.00507431 9.26559e-05 -0.000679896
125 2 8.7506 9.38259 6.6345 -0.000723609 -0.00166726 -0.00117893
126 2 11.2508 9.38259 6.6345 -0.00140304 0.00138503 0.000979362
39 2 13.751 6.49564 6.12415 -0.000766902 0.00104406 0.00357707
42 2 12.5009 8.66085 6.12415 -3.13855e-05 -0.000825063 -0.000583408
43 2 15.001 8.66085 6.12415 0.00447125 2.35441e-05 1.66479e-05
46 2 13.751 10.8261 6.12415 -0.000702299 0.000737737 -0.0039546
54 2 12.5009 7.21738 8.16553 0.00513924 0.00208437 -0.00302531
55 2 15.001 7.21738 8.16553 -0.00644791 -0.000664972 0.000784134
58 2 13.751 9.38259 8.16553 -0.000702299 -0.00348252 0.00201374
61 2 12.5009 11.5478 8.16553 0.000510429 0.000233052 0.000164792
62 2 15.001 11.5478 8.16553 0.00107085 0.000230653 0.000163096
108 2 13.751 6.49564 4.59311 0.00170165 -0.000323568 -0.000228796
111 2 12.5009 8.66085 4.59311 -0.00241258 0.00190896 -0.00155874
112 2 15.001 8.66085 4.59311 0.00464231 -9.32982e-05 -0.000350086
123 2 12.5009 7.21738 6.6345 -0.00241258 -0.000833274 0.00231936
124 2 15.001 7.21738 6.6345 0.00464231 -0.000361164 2.87333e-05
127 2 13.751 9.38259 6.6345 0.00312962 0.000772034 0.000545911
40 2 16.2511 6.49564 6.12415 -0.000227019 -0.00127868 -0.00259686
44 2 17.5012 8.66085 6.12415 0.000192585 0.000883776 0.000624924
47 2 16.2511 10.8261 6.12415 -0.000346 -0.000389478 0.00345304
48 2 18.7513 10.8261 6.12415 -0.000368737 -0.00229028 -0.00126536
56 2 17.5012 7.21738 8.16553 0.00549597 -0.0026114 0.00359048
59 2 16.2511 9.38259 8.16553 -0.000346 0.00312573 -0.00151822
60 2 18.7513 9.38259 8.16553 -0.000368737 -0.00195641 -0.00173751
63 2 17.5012 11.5478 8.16553 0.00072589 -0.000754914 -0.000533805
64 2 20.0014 11.5478 8.16553 0.00201625 -1.20755e-05 -8.53896e-06
128 2 16.2511 9.38259 6.6345 0.00345439 -0.0007862 -0.000555927
