nqpoint: 622    
npath: 9      
segment_nqpoint:
- 87
- 51
- 101
- 48
- 87
- 51
- 101
- 48
- 48
labels:
- [ '$\Gamma$', '$\mathrm{M}$' ]
- [ '$\mathrm{M}$', '$\mathrm{K}$' ]
- [ '$\mathrm{K}$', '$\Gamma$' ]
- [ '$\Gamma$', '$\mathrm{A}$' ]
- [ '$\mathrm{A}$', '$\mathrm{L}$' ]
- [ '$\mathrm{L}$', '$\mathrm{H}$' ]
- [ '$\mathrm{H}$', '$\mathrm{A}$' ]
- [ '$\mathrm{L}$', '$\mathrm{M}$' ]
- [ '$\mathrm{H}$', '$\mathrm{K}$' ]
reciprocal_lattice:
- [   0.34981595,   0.20196633,   0.00000000 ] # a*
- [   0.00000000,   0.40393266,   0.00000000 ] # b*
- [   0.00000000,   0.00000000,   0.22128802 ] # c*
natom: 2      
lattice:
- [     2.858646112469096,     0.000000000000000,     0.000000000000000 ] # a
- [    -1.429323056185861,     2.475660153822466,     0.000000000000000 ] # b
- [     0.000000000000000,     0.000000000000000,     4.518997558100215 ] # c
points:
- symbol: Au # 1
  coordinates: [  0.353557717765639,  0.680149589631008,  0.263482922963893 ]
  mass: 196.966569
- symbol: Au # 2
  coordinates: [  0.686891051091519,  0.346816256296778,  0.763482922963894 ]
  mass: 196.966569

phonon:
- q-position: [    0.0000000,    0.0000000,    0.0000000 ]
  distance:    0.0000000
  band:
  - # 1
    frequency:    0.0010817533
    eigenvector:
    - # atom 1
      - [  0.00000000001446,  0.00000000000000 ]
      - [ -0.00000000003387,  0.00000000000000 ]
      - [  0.70710678118655,  0.00000000000000 ]
    - # atom 2
      - [  0.00000000001446,  0.00000000000000 ]
      - [ -0.00000000003387,  0.00000000000000 ]
      - [  0.70710678118655,  0.00000000000000 ]
  - # 2
    frequency:    0.0084293268
    eigenvector:
    - # atom 1
      - [  0.19095843253838,  0.00000000000000 ]
      - [  0.68083395702806,  0.00000000000000 ]
      - [  0.00000000002871,  0.00000000000000 ]
    - # atom 2
      - [  0.19095843253838,  0.00000000000000 ]
      - [  0.68083395702806,  0.00000000000000 ]
      - [  0.00000000002871,  0.00000000000000 ]
  - # 3
    frequency:    0.0084293268
    eigenvector:
    - # atom 1
      - [  0.68083395702806,  0.00000000000000 ]
      - [ -0.19095843253838,  0.00000000000000 ]
      - [ -0.00000000002307,  0.00000000000000 ]
    - # atom 2
      - [  0.68083395702806,  0.00000000000000 ]
      - [ -0.19095843253838,  0.00000000000000 ]
      - [ -0.00000000002307,  0.00000000000000 ]
  - # 4
    frequency:    5.7744751131
    eigenvector:
    - # atom 1
      - [ -0.46216869665443,  0.00000000000000 ]
      - [  0.53516361594632,  0.00000000000000 ]
      - [  0.00000000000000,  0.00000000000000 ]
    - # atom 2
      - [  0.46216869665443,  0.00000000000000 ]
      - [ -0.53516361594632,  0.00000000000000 ]
      - [ -0.00000000000000,  0.00000000000000 ]
  - # 5
    frequency:    5.7744751131
    eigenvector:
    - # atom 1
      - [  0.53516361594632,  0.00000000000000 ]
      - [  0.46216869665443,  0.00000000000000 ]
      - [ -0.00000000000000,  0.00000000000000 ]
    - # atom 2
      - [ -0.53516361594632,  0.00000000000000 ]
      - [ -0.46216869665443,  0.00000000000000 ]
      - [ -0.00000000000000,  0.00000000000000 ]
  - # 6
    frequency:   11.2574691100
    eigenvector:
    - # atom 1
      - [  0.00000000000000,  0.00000000000000 ]
      - [ -0.00000000000000,  0.00000000000000 ]
      - [  0.70710678118655,  0.00000000000000 ]
    - # atom 2
      - [ -0.00000000000000,  0.00000000000000 ]
      - [  0.00000000000000,  0.00000000000000 ]
      - [ -0.70710678118655,  0.00000000000000 ]

- q-position: [    0.0058140,    0.0000000,    0.0000000 ]
  distance:    0.0023484
  band:
  - # 1
    frequency:    0.0500641359
    eigenvector:
    - # atom 1
      - [  0.35355339058712,  0.00000000000000 ]
      - [ -0.61237243569935,  0.00000000000001 ]
      - [ -0.00000000000002, -0.00000000000000 ]
    - # atom 2
      - [  0.35347113884851, -0.00762587678799 ]
      - [ -0.61222997150906,  0.01320840604935 ]
      - [ -0.00000000000002, -0.00000000000000 ]
  - # 2
    frequency:    0.0936776288
    eigenvector:
    - # atom 1
      - [ -0.00000000000004,  0.00000000000000 ]
      - [ -0.00000000000000, -0.00000000000000 ]
      - [ -0.70621618218947, -0.03547821886363 ]
    - # atom 2
      - [ -0.00000000000004, -0.00000000000000 ]
      - [ -0.00000000000000, -0.00000000000000 ]
      - [ -0.70621619538859, -0.03547795612588 ]
  - # 3
    frequency:    0.1950003279
    eigenvector:
    - # atom 1
      - [  0.61237243569935,  0.00000000000000 ]
      - [  0.35355339058712,  0.00000000000001 ]
      - [ -0.00000000000004, -0.00000000000000 ]
    - # atom 2
      - [  0.61222961113999,  0.01322509915777 ]
      - [  0.35347093078932,  0.00763551455862 ]
      - [ -0.00000000000004, -0.00000000000000 ]
  - # 4
    frequency:    5.7752853947
    eigenvector:
    - # atom 1
      - [ -0.61237243568510,  0.00000000000000 ]
      - [ -0.35355339061179, -0.00000000000056 ]
      - [  0.00000000000000,  0.00000000000000 ]
    - # atom 2
      - [  0.61222961112574,  0.01322509915807 ]
      - [  0.35347093081400,  0.00763551455866 ]
      - [  0.00000000000000, -0.00000000000000 ]
  - # 5
    frequency:    5.7753143611
    eigenvector:
    - # atom 1
      - [ -0.35355339061179,  0.00000000000000 ]
      - [  0.61237243568510,  0.00000000000098 ]
      - [ -0.00000000000000, -0.00000000000000 ]
    - # atom 2
      - [  0.35347113887319, -0.00762587678745 ]
      - [ -0.61222997149483,  0.01320840604868 ]
      - [ -0.00000000000000,  0.00000000000000 ]
  - # 6
    frequency:   11.2567195899
    eigenvector:
    - # atom 1
      - [ -0.00000000000000,  0.00000000000000 ]
      - [  0.00000000000000,  0.00000000000000 ]
      - [ -0.70710339946505,  0.00218688476461 ]
    - # atom 2
      - [  0.00000000000000, -0.00000000000000 ]
      - [ -0.00000000000000, -0.00000000000000 ]
      - [  0.70710339865140, -0.00218714783244 ]

- q-position: [    0.0116279,    0.0000000,    0.0000000 ]
  distance:    0.0046969
  band:
  - # 1
    frequency:    0.0990737832
    eigenvector:
    - # atom 1
      - [  0.35355339058717,  0.00000000000000 ]
      - [ -0.61237243569932,  0.00000000000003 ]
      - [  0.00000000000029, -0.00000000000000 ]
    - # atom 2
      - [  0.35322511736421, -0.01523208648640 ]
      - [ -0.61180384979836,  0.02638274770032 ]
      - [  0.00000000000029, -0.00000000000000 ]
  - # 2
    frequency:    0.1873364130
    eigenvector:
    - # atom 1
      - [  0.00000000000017,  0.00000000000000 ]
      - [ -0.00000000000024, -0.00000000000000 ]
      - [ -0.70709930358428,  0.00325190261647 ]
    - # atom 2
      - [  0.00000000000017, -0.00000000000001 ]
      - [ -0.00000000000024,  0.00000000000001 ]
      - [ -0.70709929389762,  0.00325400821788 ]
  - # 3
    frequency:    0.3895529649
    eigenvector:
    - # atom 1
      - [  0.61237243569932,  0.00000000000000 ]
      - [  0.35355339058717,  0.00000000000000 ]
      - [  0.00000000000003,  0.00000000000000 ]
    - # atom 2
      - [  0.61179807604405,  0.02651629976291 ]
      - [  0.35322178388560,  0.01530919280567 ]
      - [  0.00000000000003,  0.00000000000000 ]
  - # 4
    frequency:    5.7777186763
    eigenvector:
    - # atom 1
      - [ -0.61237243569356,  0.00000000000000 ]
      - [ -0.35355339059714, -0.00000000000067 ]
      - [ -0.00000000000000,  0.00000000000000 ]
    - # atom 2
      - [  0.61179807603827,  0.02651629976314 ]
      - [  0.35322178389557,  0.01530919280594 ]
      - [ -0.00000000000000,  0.00000000000000 ]
  - # 5
    frequency:    5.7778265311
    eigenvector:
    - # atom 1
      - [ -0.35355339059714,  0.00000000000000 ]
      - [  0.61237243569356,  0.00000000000120 ]
      - [  0.00000000000000, -0.00000000000000 ]
    - # atom 2
      - [  0.35322511737421, -0.01523208648594 ]
      - [ -0.61180384979264,  0.02638274769935 ]
      - [  0.00000000000000, -0.00000000000000 ]
  - # 6
    frequency:   11.2544717979
    eigenvector:
    - # atom 1
      - [ -0.00000000000000,  0.00000000000000 ]
      - [ -0.00000000000000, -0.00000000000000 ]
      - [ -0.70707327841872,  0.00688323660839 ]
    - # atom 2
      - [  0.00000000000000, -0.00000000000000 ]
      - [ -0.00000000000000,  0.00000000000000 ]
      - [  0.70707325791867, -0.00688534213229 ]

- q-position: [    0.0174419,    0.0000000,    0.0000000 ]
  distance:    0.0070453
  band:
  - # 1
    frequency:    0.1483499936
    eigenvector:
    - # atom 1
      - [  0.35355339058716,  0.00000000000000 ]
      - [ -0.61237243569932,  0.00000000000004 ]
      - [  0.00000000000010, -0.00000000000000 ]
    - # atom 2
      - [  0.35281751091329, -0.02279921026325 ]
      - [ -0.61109785471589,  0.03948939054927 ]
      - [  0.00000000000010, -0.00000000000000 ]
  - # 2
    frequency:    0.2809783059
    eigenvector:
    - # atom 1
      - [  0.00000000000006,  0.00000000000000 ]
      - [ -0.00000000000008, -0.00000000000000 ]
      - [ -0.70698452627713,  0.01314836889891 ]
    - # atom 2
      - [  0.00000000000005, -0.00000000000000 ]
      - [ -0.00000000000008,  0.00000000000001 ]
      - [ -0.70698439398718,  0.01315548017289 ]
  - # 3
    frequency:    0.5838168663
    eigenvector:
    - # atom 1
      - [  0.61237243569932,  0.00000000000000 ]
      - [  0.35355339058716,  0.00000000000001 ]
      - [  0.00000000000001, -0.00000000000000 ]
    - # atom 2
      - [  0.61106855829473,  0.03994016860159 ]
      - [  0.35280059661665,  0.02305946709307 ]
      - [  0.00000000000001, -0.00000000000000 ]
  - # 4
    frequency:    5.7817823340
    eigenvector:
    - # atom 1
      - [ -0.61237243569342,  0.00000000000000 ]
      - [ -0.35355339059739, -0.00000000000104 ]
      - [ -0.00000000000000, -0.00000000000000 ]
    - # atom 2
      - [  0.61106855828878,  0.03994016860195 ]
      - [  0.35280059662688,  0.02305946709349 ]
      - [ -0.00000000000000,  0.00000000000000 ]
  - # 5
    frequency:    5.7819949677
    eigenvector:
    - # atom 1
      - [ -0.35355339059739,  0.00000000000000 ]
      - [  0.61237243569342,  0.00000000000186 ]
      - [  0.00000000000000, -0.00000000000000 ]
    - # atom 2
      - [  0.35281751092360, -0.02279921026254 ]
      - [ -0.61109785471007,  0.03948939054779 ]
      - [  0.00000000000000, -0.00000000000000 ]
  - # 6
    frequency:   11.2507280372
    eigenvector:
    - # atom 1
      - [ -0.00000000000000,  0.00000000000000 ]
      - [ -0.00000000000000, -0.00000000000000 ]
      - [ -0.70696100577783,  0.01435744787911 ]
    - # atom 2
      - [  0.00000000000000, -0.00000000000000 ]
      - [ -0.00000000000000,  0.00000000000000 ]
      - [  0.70696086132624, -0.01436455891644 ]

- q-position: [    0.0232558,    0.0000000,    0.0000000 ]
  distance:    0.0093938
  band:
  - # 1
    frequency:    0.1977298260
    eigenvector:
    - # atom 1
      - [  0.35355339058717,  0.00000000000000 ]
      - [ -0.61237243569932,  0.00000000000005 ]
      - [  0.00000000000001, -0.00000000000000 ]
    - # atom 2
      - [  0.35225190675334, -0.03030831873135 ]
      - [ -0.61011819957384,  0.05249554793584 ]
      - [  0.00000000000001, -0.00000000000000 ]
  - # 2
    frequency:    0.3745922065
    eigenvector:
    - # atom 1
      - [  0.00000000000000,  0.00000000000000 ]
      - [ -0.00000000000001,  0.00000000000000 ]
      - [ -0.69023811164122,  0.15352963635063 ]
    - # atom 2
      - [  0.00000000000000, -0.00000000000000 ]
      - [ -0.00000000000001,  0.00000000000000 ]
      - [ -0.69023444655097,  0.15354611292530 ]
  - # 3
    frequency:    0.7775699239
    eigenvector:
    - # atom 1
      - [  0.61237243569932,  0.00000000000000 ]
      - [  0.35355339058717,  0.00000000000001 ]
      - [ -0.00000000000000, -0.00000000000000 ]
    - # atom 2
      - [  0.61002530918846,  0.05356418723211 ]
      - [  0.35219827646434,  0.03092529791666 ]
      - [ -0.00000000000000, -0.00000000000000 ]
  - # 4
    frequency:    5.7874888838
    eigenvector:
    - # atom 1
      - [ -0.61237243568962,  0.00000000000000 ]
      - [ -0.35355339060398, -0.00000000000138 ]
      - [ -0.00000000000000,  0.00000000000000 ]
    - # atom 2
      - [  0.61002530917869,  0.05356418723290 ]
      - [  0.35219827648114,  0.03092529791664 ]
      - [  0.00000000000000,  0.00000000000000 ]
  - # 5
    frequency:    5.7877921362
    eigenvector:
    - # atom 1
      - [ -0.35355339060397,  0.00000000000000 ]
      - [  0.61237243568962,  0.00000000000246 ]
      - [  0.00000000000000, -0.00000000000000 ]
    - # atom 2
      - [  0.35225190677027, -0.03030831872982 ]
      - [ -0.61011819956429,  0.05249554793423 ]
      - [ -0.00000000000000,  0.00000000000000 ]
  - # 6
    frequency:   11.2454921414
    eigenvector:
    - # atom 1
      - [ -0.00000000000000,  0.00000000000000 ]
      - [ -0.00000000000000,  0.00000000000000 ]
      - [ -0.70704266850846, -0.00952181224504 ]
    - # atom 2
      - [  0.00000000000000, -0.00000000000000 ]
      - [ -0.00000000000000, -0.00000000000000 ]
      - [  0.70704289560143,  0.00950493448369 ]

- q-position: [    0.0290698,    0.0000000,    0.0000000 ]
  distance:    0.0117422
  band:
  - # 1
    frequency:    0.2471885634
    eigenvector:
    - # atom 1
      - [  0.35355339058718, -0.00000000000000 ]
      - [ -0.61237243569932,  0.00000000000006 ]
      - [  0.00000000000002, -0.00000000000000 ]
    - # atom 2
      - [  0.35153321587959, -0.03774119935886 ]
      - [ -0.60887339046553,  0.06536967482957 ]
      - [  0.00000000000002, -0.00000000000000 ]
  - # 2
    frequency:    0.4681681995
    eigenvector:
    - # atom 1
      - [  0.00000000000001,  0.00000000000000 ]
      - [ -0.00000000000002,  0.00000000000000 ]
      - [ -0.70692491373612,  0.01603640667899 ]
    - # atom 2
      - [  0.00000000000001, -0.00000000000000 ]
      - [ -0.00000000000002,  0.00000000000000 ]
      - [ -0.70692416415952,  0.01606941590012 ]
  - # 3
    frequency:    0.9706241543
    eigenvector:
    - # atom 1
      - [ -0.61237243569932,  0.00000000000000 ]
      - [ -0.35355339058717, -0.00000000000001 ]
      - [ -0.00000000000000,  0.00000000000000 ]
    - # atom 2
      - [ -0.60864565273556, -0.06745716722795 ]
      - [ -0.35140173143989, -0.03894641365692 ]
      - [ -0.00000000000000,  0.00000000000000 ]
  - # 4
    frequency:    5.7948563189
    eigenvector:
    - # atom 1
      - [  0.61237243569004,  0.00000000000000 ]
      - [  0.35355339060323,  0.00000000000263 ]
      - [  0.00000000000000, -0.00000000000000 ]
    - # atom 2
      - [ -0.60864565272609, -0.06745716722889 ]
      - [ -0.35140173145599, -0.03894641365787 ]
      - [  0.00000000000000, -0.00000000000000 ]
  - # 5
    frequency:    5.7951799514
    eigenvector:
    - # atom 1
      - [  0.35355339060323,  0.00000000000000 ]
      - [ -0.61237243569005, -0.00000000000463 ]
      - [ -0.00000000000000, -0.00000000000000 ]
    - # atom 2
      - [ -0.35153321589598,  0.03774119935701 ]
      - [  0.60887339045656, -0.06536967482596 ]
      - [ -0.00000000000000,  0.00000000000000 ]
  - # 6
    frequency:   11.2387694672
    eigenvector:
    - # atom 1
      - [ -0.00000000000000,  0.00000000000000 ]
      - [  0.00000000000000, -0.00000000000000 ]
      - [ -0.70705048036101, -0.00892290430674 ]
    - # atom 2
      - [  0.00000000000000,  0.00000000000000 ]
      - [  0.00000000000000,  0.00000000000000 ]
      - [  0.70705089623739,  0.00888988919519 ]

- q-position: [    0.0348837,    0.0000000,    0.0000000 ]
  distance:    0.0140907
  band:
  - # 1
    frequency:    0.2967222683
    eigenvector:
    - # atom 1
      - [  0.35355339058718, -0.00000000000000 ]
      - [ -0.61237243569931,  0.00000000000007 ]
      - [  0.00000000000004, -0.00000000000000 ]
    - # atom 2
      - [  0.35066756727192, -0.04508056409673 ]
      - [ -0.60737404309552,  0.07808182745113 ]
      - [  0.00000000000004, -0.00000000000000 ]
  - # 2
    frequency:    0.5616964936
    eigenvector:
    - # atom 1
      - [  0.00000000000002,  0.00000000000000 ]
      - [ -0.00000000000003, -0.00000000000000 ]
      - [ -0.70706423973816,  0.00775634472554 ]
    - # atom 2
      - [  0.00000000000002, -0.00000000000000 ]
      - [ -0.00000000000003,  0.00000000000000 ]
      - [ -0.70706361041852,  0.00781350253884 ]
  - # 3
    frequency:    1.1627945217
    eigenvector:
    - # atom 1
      - [ -0.61237243569932,  0.00000000000000 ]
      - [ -0.35355339058717, -0.00000000000002 ]
      - [ -0.00000000000000,  0.00000000000000 ]
    - # atom 2
      - [ -0.60689933922527, -0.08168960798192 ]
      - [ -0.35039349686466, -0.04716351715726 ]
      - [ -0.00000000000000,  0.00000000000000 ]
  - # 4
    frequency:    5.8039085878
    eigenvector:
    - # atom 1
      - [  0.61237243567761,  0.00000000000000 ]
      - [  0.35355339062477,  0.00000000000713 ]
      - [  0.00000000000000,  0.00000000000000 ]
    - # atom 2
      - [ -0.60689933920294, -0.08168960798463 ]
      - [ -0.35039349690239, -0.04716351715960 ]
      - [  0.00000000000000,  0.00000000000000 ]
  - # 5
    frequency:    5.8041102269
    eigenvector:
    - # atom 1
      - [  0.35355339062476,  0.00000000000000 ]
      - [ -0.61237243567762, -0.00000000001245 ]
      - [ -0.00000000000000,  0.00000000000000 ]
    - # atom 2
      - [ -0.35066756731059,  0.04508056409163 ]
      - [  0.60737404307480, -0.07808182744166 ]
      - [ -0.00000000000000, -0.00000000000000 ]
  - # 6
    frequency:   11.2305668842
    eigenvector:
    - # atom 1
      - [ -0.00000000000000,  0.00000000000000 ]
      - [  0.00000000000000, -0.00000000000000 ]
      - [ -0.70661093496815,  0.02647615122037 ]
    - # atom 2
      - [  0.00000000000000,  0.00000000000000 ]
      - [  0.00000000000000, -0.00000000000000 ]
      - [  0.70660879237352, -0.02653327232814 ]

- q-position: [    0.0406977,    0.0000000,    0.0000000 ]
  distance:    0.0164391
  band:
  - # 1
    frequency:    0.3463302478
    eigenvector:
    - # atom 1
      - [ -0.35355339058718,  0.00000000000000 ]
      - [  0.61237243569931, -0.00000000000009 ]
      - [ -0.00000000000001,  0.00000000000000 ]
    - # atom 2
      - [ -0.34966217925785,  0.05231023219542 ]
      - [  0.60563265997379, -0.09060397992019 ]
      - [ -0.00000000000001,  0.00000000000000 ]
  - # 2
    frequency:    0.6551672526
    eigenvector:
    - # atom 1
      - [  0.00000000000001,  0.00000000000000 ]
      - [ -0.00000000000001, -0.00000000000000 ]
      - [ -0.70709291899225,  0.00442763040739 ]
    - # atom 2
      - [  0.00000000000001, -0.00000000000000 ]
      - [ -0.00000000000001,  0.00000000000000 ]
      - [ -0.70709234351705,  0.00451859929259 ]
  - # 3
    frequency:    1.3538936902
    eigenvector:
    - # atom 1
      - [ -0.61237243569932,  0.00000000000000 ]
      - [ -0.35355339058717, -0.00000000000002 ]
      - [ -0.00000000000000, -0.00000000000000 ]
    - # atom 2
      - [ -0.60474768873130, -0.09633396586080 ]
      - [ -0.34915124087279, -0.05561844112054 ]
      - [ -0.00000000000000, -0.00000000000000 ]
  - # 4
    frequency:    5.8145252324
    eigenvector:
    - # atom 1
      - [  0.35355339051052,  0.00000000000000 ]
      - [ -0.61237243574357,  0.00000000002697 ]
      - [ -0.00000000000000, -0.00000000000000 ]
    - # atom 2
      - [ -0.34966217917859,  0.05231023220739 ]
      - [  0.60563266001557, -0.09060397993987 ]
      - [  0.00000000000000, -0.00000000000000 ]
  - # 5
    frequency:    5.8146762194
    eigenvector:
    - # atom 1
      - [ -0.61237243574357,  0.00000000000000 ]
      - [ -0.35355339051053,  0.00000000001564 ]
      - [ -0.00000000000000, -0.00000000000000 ]
    - # atom 2
      - [  0.60474768877713,  0.09633396585420 ]
      - [  0.34915124079586,  0.05561844111650 ]
      - [  0.00000000000000, -0.00000000000000 ]
  - # 6
    frequency:   11.2208927616
    eigenvector:
    - # atom 1
      - [ -0.00000000000000,  0.00000000000000 ]
      - [ -0.00000000000000, -0.00000000000000 ]
      - [ -0.70672978175895,  0.02308713007182 ]
    - # atom 2
      - [  0.00000000000000, -0.00000000000000 ]
      - [ -0.00000000000000,  0.00000000000000 ]
      - [  0.70672680570471, -0.02317805208425 ]

- q-position: [    0.0465116,    0.0000000,    0.0000000 ]
  distance:    0.0187876
  band:
  - # 1
    frequency:    0.3960103120
    eigenvector:
    - # atom 1
      - [ -0.35355339058718,  0.00000000000000 ]
      - [  0.61237243569931, -0.00000000000010 ]
      - [  0.00000000000001,  0.00000000000000 ]
    - # atom 2
      - [ -0.34852521283140,  0.05941528436792 ]
      - [  0.60366337635662, -0.10291029127366 ]
      - [  0.00000000000001,  0.00000000000000 ]
  - # 2
    frequency:    0.7485705387
    eigenvector:
    - # atom 1
      - [ -0.00000000000001,  0.00000000000000 ]
      - [  0.00000000000001, -0.00000000000000 ]
      - [ -0.70651673703154, -0.02888079455810 ]
    - # atom 2
      - [ -0.00000000000001,  0.00000000000000 ]
      - [  0.00000000000001, -0.00000000000000 ]
      - [ -0.70652228438163, -0.02874476773536 ]
  - # 3
    frequency:    1.5437299433
    eigenvector:
    - # atom 1
      - [ -0.61237243569932,  0.00000000000000 ]
      - [ -0.35355339058717, -0.00000000000002 ]
      - [  0.00000000000000,  0.00000000000000 ]
    - # atom 2
      - [ -0.60214250818763, -0.11146479192025 ]
      - [ -0.34764713918465, -0.06435422761882 ]
      - [  0.00000000000000,  0.00000000000000 ]
  - # 4
    frequency:    5.8263583455
    eigenvector:
    - # atom 1
      - [  0.35355339056942,  0.00000000000000 ]
      - [ -0.61237243570957,  0.00000000000727 ]
      - [  0.00000000000000,  0.00000000000000 ]
    - # atom 2
      - [ -0.34852521281285,  0.05941528437104 ]
      - [  0.60366337636613, -0.10291029127893 ]
      - [  0.00000000000000, -0.00000000000000 ]
  - # 5
    frequency:    5.8271971019
    eigenvector:
    - # atom 1
      - [ -0.61237243570956,  0.00000000000000 ]
      - [ -0.35355339056943,  0.00000000000428 ]
      - [  0.00000000000000,  0.00000000000000 ]
    - # atom 2
      - [  0.60214250819838,  0.11146479191846 ]
      - [  0.34764713916681,  0.06435422761768 ]
      - [  0.00000000000000, -0.00000000000000 ]
  - # 6
    frequency:   11.2097569518
    eigenvector:
    - # atom 1
      - [ -0.00000000000000,  0.00000000000000 ]
      - [  0.00000000000000,  0.00000000000000 ]
      - [ -0.70506307168058,  0.05372210859925 ]
    - # atom 2
      - [  0.00000000000000, -0.00000000000000 ]
      - [ -0.00000000000000, -0.00000000000000 ]
      - [  0.70505271544817, -0.05385785401555 ]

- q-position: [    0.0523256,    0.0000000,    0.0000000 ]
  distance:    0.0211360
  band:
  - # 1
    frequency:    0.4457569753
    eigenvector:
    - # atom 1
      - [ -0.35355339058718,  0.00000000000000 ]
      - [  0.61237243569931, -0.00000000000011 ]
      - [ -0.00000000000001,  0.00000000000000 ]
    - # atom 2
      - [ -0.34726561218982,  0.06638218575882 ]
      - [  0.60148168404813, -0.11497731845429 ]
      - [ -0.00000000000001,  0.00000000000000 ]
  - # 2
    frequency:    0.8418962809
    eigenvector:
    - # atom 1
      - [  0.00000000000001,  0.00000000000000 ]
      - [ -0.00000000000001,  0.00000000000000 ]
      - [ -0.70606594487522,  0.03835207279234 ]
    - # atom 2
      - [  0.00000000000001, -0.00000000000000 ]
      - [ -0.00000000000001,  0.00000000000000 ]
      - [ -0.70605537422530,  0.03854618693945 ]
  - # 3
    frequency:    1.7321057270
    eigenvector:
    - # atom 1
      - [ -0.61237243569932,  0.00000000000000 ]
      - [ -0.35355339058716, -0.00000000000003 ]
      - [ -0.00000000000000,  0.00000000000000 ]
    - # atom 2
      - [ -0.59902476598424, -0.12715867938069 ]
      - [ -0.34584710988429, -0.07341509776852 ]
      - [ -0.00000000000000,  0.00000000000000 ]
  - # 4
    frequency:    5.8395347826
    eigenvector:
    - # atom 1
      - [  0.35355339057762,  0.00000000000000 ]
      - [ -0.61237243570483,  0.00000000000429 ]
      - [ -0.00000000000000, -0.00000000000000 ]
    - # atom 2
      - [ -0.34726561217976,  0.06638218576068 ]
      - [  0.60148168405315, -0.11497731845733 ]
      - [ -0.00000000000000, -0.00000000000000 ]
  - # 5
    frequency:    5.8415174216
    eigenvector:
    - # atom 1
      - [ -0.61237243570482,  0.00000000000000 ]
      - [ -0.35355339057764,  0.00000000000257 ]
      - [ -0.00000000000000, -0.00000000000000 ]
    - # atom 2
      - [  0.59902476599009,  0.12715867937958 ]
      - [  0.34584710987470,  0.07341509776790 ]
      - [ -0.00000000000000, -0.00000000000000 ]
  - # 6
    frequency:   11.1971707719
    eigenvector:
    - # atom 1
      - [ -0.00000000000000,  0.00000000000000 ]
      - [ -0.00000000000000,  0.00000000000000 ]
      - [ -0.70707238147343, -0.00697476576627 ]
    - # atom 2
      - [  0.00000000000000, -0.00000000000000 ]
      - [ -0.00000000000000, -0.00000000000000 ]
      - [  0.70707427229331,  0.00678037321099 ]

- q-position: [    0.0581395,    0.0000000,    0.0000000 ]
  distance:    0.0234845
  band:
  - # 1
    frequency:    0.4955606239
    eigenvector:
    - # atom 1
      - [ -0.35355339058718,  0.00000000000000 ]
      - [  0.61237243569931, -0.00000000000012 ]
      - [ -0.00000000000001, -0.00000000000000 ]
    - # atom 2
      - [ -0.34589293787701,  0.07319887651118 ]
      - [  0.59910414239605, -0.12678417317712 ]
      - [ -0.00000000000001, -0.00000000000000 ]
  - # 2
    frequency:    0.9351342518
    eigenvector:
    - # atom 1
      - [  0.00000000000000,  0.00000000000000 ]
      - [ -0.00000000000000, -0.00000000000000 ]
      - [ -0.70686211623042, -0.01859969457412 ]
    - # atom 2
      - [  0.00000000000000, -0.00000000000000 ]
      - [ -0.00000000000000,  0.00000000000000 ]
      - [ -0.70686910284577, -0.01833225141707 ]
  - # 3
    frequency:    1.9188162979
    eigenvector:
    - # atom 1
      - [ -0.61237243569932,  0.00000000000000 ]
      - [ -0.35355339058716, -0.00000000000003 ]
      - [ -0.00000000000000, -0.00000000000000 ]
    - # atom 2
      - [ -0.59532301231466, -0.14349394068364 ]
      - [ -0.34370990140673, -0.08284626527885 ]
      - [ -0.00000000000000, -0.00000000000000 ]
  - # 4
    frequency:    5.8539723931
    eigenvector:
    - # atom 1
      - [  0.35355339058112,  0.00000000000000 ]
      - [ -0.61237243570281,  0.00000000000312 ]
      - [  0.00000000000000,  0.00000000000000 ]
    - # atom 2
      - [ -0.34589293787054,  0.07319887651246 ]
      - [  0.59910414239916, -0.12678417317933 ]
      - [ -0.00000000000000,  0.00000000000000 ]
  - # 5
    frequency:    5.8576927659
    eigenvector:
    - # atom 1
      - [ -0.61237243570280,  0.00000000000000 ]
      - [ -0.35355339058113,  0.00000000000190 ]
      - [  0.00000000000000,  0.00000000000000 ]
    - # atom 2
      - [  0.59532301231844,  0.14349394068284 ]
      - [  0.34370990140064,  0.08284626527836 ]
      - [ -0.00000000000000,  0.00000000000000 ]
  - # 6
    frequency:   11.1831469818
    eigenvector:
    - # atom 1
      - [ -0.00000000000000,  0.00000000000000 ]
      - [  0.00000000000000, -0.00000000000000 ]
      - [ -0.70705229771085, -0.00877771620644 ]
    - # atom 2
      - [  0.00000000000000,  0.00000000000000 ]
      - [  0.00000000000000,  0.00000000000000 ]
      - [  0.70705556815951,  0.00851020179709 ]

- q-position: [    0.0639535,    0.0000000,    0.0000000 ]
  distance:    0.0258329
  band:
  - # 1
    frequency:    0.5454071077
    eigenvector:
    - # atom 1
      - [ -0.35355339058718,  0.00000000000000 ]
      - [  0.61237243569931, -0.00000000000013 ]
      - [ -0.00000000000000,  0.00000000000000 ]
    - # atom 2
      - [ -0.34441719777216,  0.07985483000086 ]
      - [  0.59654808555561, -0.13831262279432 ]
      - [ -0.00000000000000,  0.00000000000000 ]
  - # 2
    frequency:    1.0282740475
    eigenvector:
    - # atom 1
      - [  0.00000000000000,  0.00000000000000 ]
      - [ -0.00000000000000,  0.00000000000000 ]
      - [ -0.67668236571262,  0.20518522347764 ]
    - # atom 2
      - [  0.00000000000000, -0.00000000000000 ]
      - [ -0.00000000000000,  0.00000000000000 ]
      - [ -0.67657857991602,  0.20552718846619 ]
  - # 3
    frequency:    2.1036483287
    eigenvector:
    - # atom 1
      - [ -0.61237243569932,  0.00000000000000 ]
      - [ -0.35355339058716, -0.00000000000003 ]
      - [  0.00000000000000,  0.00000000000000 ]
    - # atom 2
      - [ -0.59095154420871, -0.16054990626489 ]
      - [ -0.34118603311907, -0.09269353159824 ]
      - [ -0.00000000000000,  0.00000000000000 ]
  - # 4
    frequency:    5.8695824991
    eigenvector:
    - # atom 1
      - [  0.35355339058285,  0.00000000000000 ]
      - [ -0.61237243570181,  0.00000000000247 ]
      - [  0.00000000000000, -0.00000000000000 ]
    - # atom 2
      - [ -0.34441719776748,  0.07985483000184 ]
      - [  0.59654808555778, -0.13831262279603 ]
      - [  0.00000000000000, -0.00000000000000 ]
  - # 5
    frequency:    5.8757893917
    eigenvector:
    - # atom 1
      - [ -0.61237243570180,  0.00000000000000 ]
      - [ -0.35355339058287,  0.00000000000153 ]
      - [  0.00000000000000, -0.00000000000000 ]
    - # atom 2
      - [  0.59095154421145,  0.16054990626424 ]
      - [  0.34118603311472,  0.09269353159785 ]
      - [  0.00000000000000, -0.00000000000000 ]
  - # 6
    frequency:   11.1676997597
    eigenvector:
    - # atom 1
      - [ -0.00000000000000,  0.00000000000000 ]
      - [  0.00000000000000,  0.00000000000000 ]
      - [ -0.70692415996339,  0.01606960049475 ]
    - # atom 2
      - [  0.00000000000000,  0.00000000000000 ]
      - [  0.00000000000000, -0.00000000000000 ]
      - [  0.70691594820168, -0.01642687365627 ]

- q-position: [    0.0697674,    0.0000000,    0.0000000 ]
  distance:    0.0281813
  band:
  - # 1
    frequency:    0.5952775716
    eigenvector:
    - # atom 1
      - [ -0.35355339058718,  0.00000000000000 ]
      - [  0.61237243569931, -0.00000000000014 ]
      - [  0.00000000000000, -0.00000000000000 ]
    - # atom 2
      - [ -0.34284868077182,  0.08634107996034 ]