ITEM: TIMESTEP
40
ITEM: NUMBER OF ATOMS
2
ITEM: BOX BOUNDS xy xz yz pp pp pp
-1.3907801508704076e+00 2.8971890177845490e+00 -1.4293230561858608e+00
3.3379135138767869e-02 2.5090392889612336e+00 0.0000000000000000e+00
6.0929295949886247e-02 4.5799268540501012e+00 0.0000000000000000e+00
ITEM: ATOMS id type x y z fx fy fz
1 1 0.0385429 1.68382 1.19068 8.47239e-15 2.1207e-14 6.64914e-14
2 1 1.46787 0.858599 3.45018 -8.43769e-15 -2.12122e-14 -6.65023e-14
