LAMMPS data file via write_data, version 2 Aug 2023, timestep = 40, units = metal

2 atoms
1 atom types

0.03854290531545309 2.897189017784549 xlo xhi
0.03337913513876787 2.5090392889612336 ylo yhi
0.06092929594988625 4.579926854050101 zlo zhi
-1.4293230561858608 0 0 xy xz yz

Masses

1 47.867

Atoms # atomic

1 1 0.038542905309240504 1.6838192376881873 1.190678685474938
2 1 1.4678659615075333 0.8585991864118141 3.450177464525049
