  54   54
1 1
    29.977547379528335     0.000000000000007     0.000000000000002
     0.000000000000007    29.977547379528325    -0.000000000000002
     0.000000000000001    -0.000000000000001    45.328796858992654
1 2
    -6.631543362782776    -0.696932822216113     0.000000000000000
     0.940398815608578     3.054077428891900    -0.000000000000000
    -0.000000000000000    -0.000000000000000     0.844365296434335
1 3
    -6.631543362755363     0.696932822216114     0.000000000000000
    -0.940398815227618     3.054077428864487    -0.000000000000000
    -0.000000000000000    -0.000000000000000     0.844365296434335
1 4
     0.738096098565281     3.314464511370967     0.000000000000000
     4.951796148923285    -4.315562032456152    -0.000000000000000
    -0.000000000000000     0.000000000000000     0.844365296434335
1 5
     0.738096098434912    -3.314464511370967     0.000000000000000
    -4.951796149122059    -4.315562032325787    -0.000000000000000
     0.000000000000000     0.000000000000000     0.844365296434335
1 6
    -2.633332812324932    -0.000000000000000    -0.000000000000000
    -0.000000000000001    -2.633332812324932     0.000000000000000
    -0.000000000000000     0.000000000000000    -0.788081807621762
1 7
     0.527248363532440     5.073529145600016     0.000000000000000
     3.436197507893800    -4.104714297423311    -0.000000000000000
    -0.000000000000000     0.000000000000000     0.844365296434335
1 8
    -2.636849459550644    -0.000000000000001    -0.000000000000000
    -0.000000000000001    -2.636849459550644     0.000000000000000
    -0.000000000000000     0.000000000000000    -0.769256931377108
1 9
     0.527248363332882    -5.073529145600018    -0.000000000000000
    -3.436197508075988    -4.104714297223757    -0.000000000000000
     0.000000000000000     0.000000000000000     0.844365296434335
1 10
     1.040638589462419     0.000000000000000    -0.000000000000000
     0.000000000000000     1.040638589462419     0.000000000000000
     0.000000000000000    -0.000000000000000     0.294986958539887
1 11
    -0.546349030478648    -0.352471804310436    -0.180173201350702
     0.396056230662603    -0.076360754032091     0.427664257031089
     0.241215282328674    -0.167087697528519    -0.084445137053534
1 12
    -0.546349030464784     0.352471804310436     0.180173201350702
    -0.396056230644118    -0.076360754045955     0.427664257024002
    -0.241215282335246    -0.167087697528519    -0.084445137053534
1 13
    -0.174985212940303    -0.181649230630990    -0.280281510200293
     0.566878804328188    -0.447724571570436    -0.369866697959478
     0.024094549559635     0.292442411044317    -0.084445137053534
1 14
    -0.174985212933159     0.181649230630990     0.280281510200293
    -0.566878804338916    -0.447724571577580    -0.369866697970502
    -0.024094549548132     0.292442411044317    -0.084445137053534
1 15
     0.296487034490939     0.000000000000000     0.000000000000000
     0.000000000000000     0.296487034490939    -0.000000000000000
     0.000000000000000    -0.000000000000000     0.679291795863810
1 16
    -0.212730433346085     0.588671017501678    -0.460454711550995
    -0.159857017464968    -0.409979351164654    -0.057797559053500
     0.265309831883378    -0.125354713515798    -0.084445137053534
1 17
     0.261783524708142     0.000000000000000     0.000000000000000
     0.000000000000000     0.261783524708142    -0.000000000000000
     0.000000000000000     0.000000000000000     0.647199931596334
1 18
    -0.212730433369239    -0.588671017501678     0.460454711550995
     0.159857017457210    -0.409979351141501    -0.057797559071611
    -0.265309831888309    -0.125354713515798    -0.084445137053534
1 19
     1.040638589462419     0.000000000000000     0.000000000000000
     0.000000000000000     1.040638589462419     0.000000000000000
     0.000000000000000    -0.000000000000000     0.294986958539887
1 20
    -0.546349030478648    -0.352471804310436     0.180173201350702
     0.396056230662604    -0.076360754032091    -0.427664257031089
    -0.241215282328674     0.167087697528519    -0.084445137053534
1 21
    -0.546349030464784     0.352471804310436    -0.180173201350702
    -0.396056230644118    -0.076360754045955    -0.427664257024002
     0.241215282335246     0.167087697528519    -0.084445137053534
1 22
    -0.174985212940303    -0.181649230630990     0.280281510200293
     0.566878804328188    -0.447724571570435     0.369866697959478
    -0.024094549559635    -0.292442411044317    -0.084445137053534
1 23
    -0.174985212933159     0.181649230630990    -0.280281510200293
    -0.566878804338916    -0.447724571577580     0.369866697970502
     0.024094549548132    -0.292442411044317    -0.084445137053534
1 24
     0.296487034490939     0.000000000000000     0.000000000000000
     0.000000000000000     0.296487034490939    -0.000000000000000
     0.000000000000000    -0.000000000000000     0.679291795863810
1 25
    -0.212730433346085     0.588671017501678     0.460454711550995
    -0.159857017464968    -0.409979351164654     0.057797559053500
    -0.265309831883378     0.125354713515798    -0.084445137053534
1 26
     0.261783524708142     0.000000000000000    -0.000000000000000
     0.000000000000000     0.261783524708142     0.000000000000000
    -0.000000000000000     0.000000000000000     0.647199931596335
1 27
    -0.212730433369239    -0.588671017501678    -0.460454711550995
     0.159857017457210    -0.409979351141501     0.057797559071611
     0.265309831888309     0.125354713515798    -0.084445137053534
1 28
    -2.507760362971082     3.442962598392751    -5.142558840335112
     3.442962598485950     1.467830402885901     2.969057730898575
    -5.775538238806709     3.334508556920620    -8.269387077161317
1 29
    -1.951529933648094     0.000000000000000     0.000000000000000
     0.000000000064275     1.316752032060166     0.861156904908112
     0.000000000019695     1.001426979632072    -0.225046688003888
1 30
    -2.507760363106502    -3.442962598392749     5.142558840335109
    -3.442962598329581     1.467830403021321     2.969057730696306
     5.775538238937865     3.334508556920620    -8.269387077161317
1 31
     3.455625785949814    -0.000000000000001    -0.000000000000003
    -0.000000000156370    -4.495555746034992    -5.938115461594878
    -0.000000000131155    -6.669017113841239    -8.269387077161316
1 32
    -1.607733420032111    -0.356668554646124     0.871881467969102
    -0.356668554639580    -1.195888047944355     0.503381000217358
    -0.052254384259155    -0.030169082817953    -0.566957590059977
1 33
    -1.607733420018082     0.356668554646123    -0.871881467969102
     0.356668554655779    -1.195888047958384     0.503381000251651
     0.052254384257968    -0.030169082817953    -0.566957590059977
1 34
     0.499681540660934     1.415207604513862    -0.745783756293179
     1.415207604487896    -1.134459442248860    -0.430578452439389
    -0.867261204408235    -0.500713489816036    -0.225046688003888
1 35
     0.499681540605270    -1.415207604513862     0.745783756293178
    -1.415207604552171    -1.134459442193197    -0.430578452468722
     0.867261204388541    -0.500713489816036    -0.225046688003888
1 36
    -0.989965361914507    -0.000000000000001    -0.000000000000000
    -0.000000000016199    -1.813656106061959    -1.006762000469009
     0.000000000001187     0.060338165635906    -0.566957590059976
1 37
    -0.000210900515097     0.001457428251159     0.000000000000000
     0.001457428251198     0.001471992671111    -0.000000000000000
    -0.000000000000000     0.000000000000000     1.138295029540271
1 38
    -0.000035309665891    -0.000000000000000     0.000000000000000
     0.000000000000001    -0.000000990364338    -0.000000000000000
    -0.000000000000000     0.000000000000000     0.000303294405969
1 39
    -0.000210900515155    -0.001457428251159     0.000000000000000
    -0.001457428251132     0.001471992671169    -0.000000000000000
    -0.000000000000000     0.000000000000000     1.138295029540271
1 40
     0.002313439264273     0.000000000000000     0.000000000000000
    -0.000000000000066    -0.001052347108259    -0.000000000000000
     0.000000000000000     0.000000000000000     1.138295029540271
1 41
    -0.001767790434771    -0.001145774234834    -0.000000000000000
    -0.001145774234813    -0.000444764308899     0.000000000000000
     0.000000000000000     0.000000000000000    -0.038237174455725
1 42
    -0.001767790434726     0.001145774234834     0.000000000000000
     0.001145774234865    -0.000444764308944    -0.000000000000000
     0.000000000000000    -0.000000000000000    -0.038237174455725
1 43
    -0.000009570189726     0.000014860693493     0.000000000000000
     0.000014860693492    -0.000026729840503    -0.000000000000000
     0.000000000000000     0.000000000000000     0.000303294405969
1 44
    -0.000009570189726    -0.000014860693493     0.000000000000000
    -0.000014860693493    -0.000026729840503    -0.000000000000000
    -0.000000000000000     0.000000000000000     0.000303294405969
1 45
     0.000216748753992    -0.000000000000000    -0.000000000000000
    -0.000000000000052    -0.002429303497662     0.000000000000000
     0.000000000000000    -0.000000000000000    -0.038237174455725
1 46
    -2.507760362971081     3.442962598392750     5.142558840335110
     3.442962598485949     1.467830402885902    -2.969057730898574
     5.775538238806709    -3.334508556920620    -8.269387077161317
1 47
    -1.951529933648094     0.000000000000000    -0.000000000000000
     0.000000000064275     1.316752032060167    -0.861156904908112
    -0.000000000019695    -1.001426979632073    -0.225046688003888
1 48
    -2.507760363106503    -3.442962598392749    -5.142558840335110
    -3.442962598329581     1.467830403021322    -2.969057730696304
    -5.775538238937865    -3.334508556920620    -8.269387077161319
1 49
     3.455625785949815    -0.000000000000001     0.000000000000001
    -0.000000000156370    -4.495555746034992     5.938115461594880
     0.000000000131156     6.669017113841241    -8.269387077161319
1 50
    -1.607733420032111    -0.356668554646124    -0.871881467969102
    -0.356668554639580    -1.195888047944355    -0.503381000217358
     0.052254384259155     0.030169082817953    -0.566957590059976
1 51
    -1.607733420018082     0.356668554646123     0.871881467969102
     0.356668554655778    -1.195888047958384    -0.503381000251651
    -0.052254384257968     0.030169082817953    -0.566957590059977
1 52
     0.499681540660934     1.415207604513862     0.745783756293179
     1.415207604487896    -1.134459442248860     0.430578452439389
     0.867261204408235     0.500713489816036    -0.225046688003888
1 53
     0.499681540605269    -1.415207604513862    -0.745783756293178
    -1.415207604552172    -1.134459442193197     0.430578452468722
    -0.867261204388540     0.500713489816036    -0.225046688003888
1 54
    -0.989965361914507    -0.000000000000001     0.000000000000000
    -0.000000000016199    -1.813656106061958     1.006762000469009
    -0.000000000001187    -0.060338165635905    -0.566957590059977
2 1
    -6.631543362755363     0.696932822216114     0.000000000000000
    -0.940398815227619     3.054077428864487    -0.000000000000000
    -0.000000000000000    -0.000000000000000     0.844365296434335
2 2
    29.977547379528335     0.000000000000008     0.000000000000002
     0.000000000000008    29.977547379528325    -0.000000000000002
     0.000000000000001    -0.000000000000001    45.328796858992646
2 3
    -6.631543362782776    -0.696932822216113     0.000000000000000
     0.940398815608577     3.054077428891900    -0.000000000000000
    -0.000000000000000    -0.000000000000000     0.844365296434335
2 4
    -2.633332812324932    -0.000000000000001    -0.000000000000000
    -0.000000000000001    -2.633332812324932     0.000000000000000
    -0.000000000000000     0.000000000000000    -0.788081807621762
2 5
     0.738096098565281     3.314464511370967     0.000000000000000
     4.951796148923285    -4.315562032456152    -0.000000000000000
    -0.000000000000000     0.000000000000000     0.844365296434335
2 6
     0.738096098434912    -3.314464511370967     0.000000000000000
    -4.951796149122059    -4.315562032325787    -0.000000000000000
     0.000000000000000     0.000000000000000     0.844365296434335
2 7
     0.527248363332882    -5.073529145600018    -0.000000000000000
    -3.436197508075988    -4.104714297223757    -0.000000000000000
     0.000000000000000     0.000000000000000     0.844365296434335
2 8
     0.527248363532440     5.073529145600016     0.000000000000000
     3.436197507893800    -4.104714297423311    -0.000000000000000
    -0.000000000000000     0.000000000000000     0.844365296434335
2 9
    -2.636849459550644    -0.000000000000001    -0.000000000000000
    -0.000000000000001    -2.636849459550644     0.000000000000000
    -0.000000000000000     0.000000000000000    -0.769256931377108
2 10
    -0.546349030464784     0.352471804310436     0.180173201350702
    -0.396056230644118    -0.076360754045955     0.427664257024002
    -0.241215282335246    -0.167087697528519    -0.084445137053534
2 11
     1.040638589462419     0.000000000000000    -0.000000000000000
     0.000000000000000     1.040638589462419     0.000000000000000
     0.000000000000000    -0.000000000000000     0.294986958539887
2 12
    -0.546349030478648    -0.352471804310436    -0.180173201350702
     0.396056230662603    -0.076360754032091     0.427664257031089
     0.241215282328674    -0.167087697528519    -0.084445137053534
2 13
     0.296487034490939     0.000000000000000     0.000000000000000
     0.000000000000000     0.296487034490939    -0.000000000000000
     0.000000000000000    -0.000000000000000     0.679291795863810
2 14
    -0.174985212940303    -0.181649230630990    -0.280281510200293
     0.566878804328188    -0.447724571570436    -0.369866697959478
     0.024094549559635     0.292442411044317    -0.084445137053534
2 15
    -0.174985212933159     0.181649230630990     0.280281510200293
    -0.566878804338916    -0.447724571577580    -0.369866697970502
    -0.024094549548132     0.292442411044317    -0.084445137053534
2 16
    -0.212730433369239    -0.588671017501678     0.460454711550995
     0.159857017457210    -0.409979351141501    -0.057797559071611
    -0.265309831888309    -0.125354713515798    -0.084445137053534
2 17
    -0.212730433346085     0.588671017501678    -0.460454711550995
    -0.159857017464968    -0.409979351164654    -0.057797559053500
     0.265309831883378    -0.125354713515798    -0.084445137053534
2 18
     0.261783524708142     0.000000000000000     0.000000000000000
     0.000000000000000     0.261783524708142    -0.000000000000000
     0.000000000000000     0.000000000000000     0.647199931596334
2 19
    -0.546349030464784     0.352471804310436    -0.180173201350702
    -0.396056230644118    -0.076360754045955    -0.427664257024002
     0.241215282335246     0.167087697528519    -0.084445137053534
2 20
     1.040638589462419     0.000000000000000     0.000000000000000
     0.000000000000000     1.040638589462419     0.000000000000000
     0.000000000000000    -0.000000000000000     0.294986958539887
2 21
    -0.546349030478648    -0.352471804310436     0.180173201350702
     0.396056230662604    -0.076360754032091    -0.427664257031089
    -0.241215282328674     0.167087697528519    -0.084445137053534
2 22
     0.296487034490939     0.000000000000000     0.000000000000000
     0.000000000000000     0.296487034490939    -0.000000000000000
     0.000000000000000    -0.000000000000000     0.679291795863810
2 23
    -0.174985212940303    -0.181649230630990     0.280281510200293
     0.566878804328188    -0.447724571570435     0.369866697959478
    -0.024094549559635    -0.292442411044317    -0.084445137053534
2 24
    -0.174985212933159     0.181649230630990    -0.280281510200293
    -0.566878804338916    -0.447724571577580     0.369866697970502
     0.024094549548132    -0.292442411044317    -0.084445137053534
2 25
    -0.212730433369239    -0.588671017501678    -0.460454711550995
     0.159857017457210    -0.409979351141501     0.057797559071611
     0.265309831888309     0.125354713515798    -0.084445137053534
2 26
    -0.212730433346085     0.588671017501678     0.460454711550995
    -0.159857017464968    -0.409979351164654     0.057797559053500
    -0.265309831883378     0.125354713515798    -0.084445137053534
2 27
     0.261783524708142     0.000000000000000    -0.000000000000000
     0.000000000000000     0.261783524708142     0.000000000000000
    -0.000000000000000     0.000000000000000     0.647199931596335
2 28
    -2.507760363106502    -3.442962598392749     5.142558840335108
    -3.442962598329581     1.467830403021321     2.969057730696306
     5.775538238937864     3.334508556920619    -8.269387077161316
2 29
    -2.507760362971082     3.442962598392751    -5.142558840335111
     3.442962598485950     1.467830402885902     2.969057730898574
    -5.775538238806708     3.334508556920619    -8.269387077161316
2 30
    -1.951529933648094     0.000000000000000     0.000000000000000
     0.000000000064275     1.316752032060166     0.861156904908111
     0.000000000019695     1.001426979632072    -0.225046688003888
2 31
    -1.607733420018082     0.356668554646123    -0.871881467969102
     0.356668554655779    -1.195888047958384     0.503381000251651
     0.052254384257968    -0.030169082817953    -0.566957590059977
2 32
     3.455625785949814    -0.000000000000001    -0.000000000000003
    -0.000000000156370    -4.495555746034992    -5.938115461594877
    -0.000000000131155    -6.669017113841238    -8.269387077161314
2 33
    -1.607733420032111    -0.356668554646124     0.871881467969102
    -0.356668554639580    -1.195888047944355     0.503381000217358
    -0.052254384259155    -0.030169082817953    -0.566957590059976
2 34
    -0.989965361914507    -0.000000000000001    -0.000000000000000
    -0.000000000016199    -1.813656106061959    -1.006762000469009
     0.000000000001187     0.060338165635906    -0.566957590059976
2 35
     0.499681540660934     1.415207604513862    -0.745783756293179
     1.415207604487896    -1.134459442248860    -0.430578452439389
    -0.867261204408235    -0.500713489816036    -0.225046688003888
2 36
     0.499681540605270    -1.415207604513862     0.745783756293178
    -1.415207604552171    -1.134459442193197    -0.430578452468722
     0.867261204388540    -0.500713489816036    -0.225046688003888
2 37
    -0.000210900515155    -0.001457428251159     0.000000000000000
    -0.001457428251132     0.001471992671169    -0.000000000000000
    -0.000000000000000     0.000000000000000     1.138295029540271
2 38
    -0.000210900515097     0.001457428251159     0.000000000000000
     0.001457428251198     0.001471992671111    -0.000000000000000
    -0.000000000000000     0.000000000000000     1.138295029540271
2 39
    -0.000035309665891    -0.000000000000000     0.000000000000000
     0.000000000000001    -0.000000990364338    -0.000000000000000
    -0.000000000000000     0.000000000000000     0.000303294405969
2 40
    -0.001767790434726     0.001145774234834     0.000000000000000
     0.001145774234865    -0.000444764308944    -0.000000000000000
     0.000000000000000    -0.000000000000000    -0.038237174455725
2 41
     0.002313439264273     0.000000000000000     0.000000000000000
    -0.000000000000066    -0.001052347108259    -0.000000000000000
     0.000000000000000     0.000000000000000     1.138295029540271
2 42
    -0.001767790434771    -0.001145774234834    -0.000000000000000
    -0.001145774234813    -0.000444764308899     0.000000000000000
     0.000000000000000     0.000000000000000    -0.038237174455725
2 43
     0.000216748753992    -0.000000000000000    -0.000000000000000
    -0.000000000000052    -0.002429303497662     0.000000000000000
     0.000000000000000    -0.000000000000000    -0.038237174455725
2 44
    -0.000009570189726     0.000014860693493     0.000000000000000
     0.000014860693492    -0.000026729840503    -0.000000000000000
     0.000000000000000     0.000000000000000     0.000303294405969
2 45
    -0.000009570189726    -0.000014860693493     0.000000000000000
    -0.000014860693493    -0.000026729840503    -0.000000000000000
    -0.000000000000000     0.000000000000000     0.000303294405969
2 46
    -2.507760363106503    -3.442962598392749    -5.142558840335109
    -3.442962598329581     1.467830403021322    -2.969057730696303
    -5.775538238937864    -3.334508556920619    -8.269387077161317
2 47
    -2.507760362971081     3.442962598392750     5.142558840335109
     3.442962598485949     1.467830402885903    -2.969057730898574
     5.775538238806708    -3.334508556920620    -8.269387077161316
2 48
    -1.951529933648094     0.000000000000000    -0.000000000000000
     0.000000000064275     1.316752032060167    -0.861156904908111
    -0.000000000019695    -1.001426979632072    -0.225046688003888
2 49
    -1.607733420018082     0.356668554646123     0.871881467969101
     0.356668554655778    -1.195888047958384    -0.503381000251651
    -0.052254384257968     0.030169082817953    -0.566957590059976
2 50
     3.455625785949815    -0.000000000000001     0.000000000000001
    -0.000000000156370    -4.495555746034992     5.938115461594879
     0.000000000131156     6.669017113841240    -8.269387077161317
2 51
    -1.607733420032111    -0.356668554646124    -0.871881467969102
    -0.356668554639580    -1.195888047944355    -0.503381000217358
     0.052254384259155     0.030169082817953    -0.566957590059976
2 52
    -0.989965361914507    -0.000000000000001     0.000000000000000
    -0.000000000016199    -1.813656106061958     1.006762000469009
    -0.000000000001187    -0.060338165635905    -0.566957590059977
2 53
     0.499681540660934     1.415207604513862     0.745783756293179
     1.415207604487896    -1.134459442248860     0.430578452439389
     0.867261204408235     0.500713489816036    -0.225046688003888
2 54
     0.499681540605269    -1.415207604513862    -0.745783756293178
    -1.415207604552172    -1.134459442193197     0.430578452468722
    -0.867261204388540     0.500713489816036    -0.225046688003888
3 1
    -6.631543362782776    -0.696932822216113     0.000000000000000
     0.940398815608577     3.054077428891900    -0.000000000000000
    -0.000000000000000    -0.000000000000000     0.844365296434335
3 2
    -6.631543362755363     0.696932822216114     0.000000000000000
    -0.940398815227619     3.054077428864487    -0.000000000000000
    -0.000000000000000    -0.000000000000000     0.844365296434335
3 3
    29.977547379528335     0.000000000000008     0.000000000000002
     0.000000000000008    29.977547379528325    -0.000000000000002
     0.000000000000001    -0.000000000000001    45.328796858992646
3 4
     0.738096098434912    -3.314464511370967     0.000000000000000
    -4.951796149122059    -4.315562032325787    -0.000000000000000
     0.000000000000000     0.000000000000000     0.844365296434335
3 5
    -2.633332812324932    -0.000000000000001    -0.000000000000000
    -0.000000000000001    -2.633332812324932     0.000000000000000
    -0.000000000000000     0.000000000000000    -0.788081807621762
3 6
     0.738096098565281     3.314464511370967     0.000000000000000
     4.951796148923285    -4.315562032456152    -0.000000000000000
    -0.000000000000000     0.000000000000000     0.844365296434335
3 7
    -2.636849459550644    -0.000000000000001    -0.000000000000000
    -0.000000000000001    -2.636849459550644     0.000000000000000
    -0.000000000000000     0.000000000000000    -0.769256931377108
3 8
     0.527248363332882    -5.073529145600018    -0.000000000000000
    -3.436197508075988    -4.104714297223757    -0.000000000000000
     0.000000000000000     0.000000000000000     0.844365296434335
3 9
     0.527248363532440     5.073529145600016     0.000000000000000
     3.436197507893800    -4.104714297423311    -0.000000000000000
    -0.000000000000000     0.000000000000000     0.844365296434335
3 10
    -0.546349030478648    -0.352471804310436    -0.180173201350702
     0.396056230662603    -0.076360754032091     0.427664257031089
     0.241215282328674    -0.167087697528519    -0.084445137053534
3 11
    -0.546349030464784     0.352471804310436     0.180173201350702
    -0.396056230644118    -0.076360754045955     0.427664257024002
    -0.241215282335246    -0.167087697528519    -0.084445137053534
3 12
     1.040638589462419     0.000000000000000    -0.000000000000000
     0.000000000000000     1.040638589462419     0.000000000000000
     0.000000000000000    -0.000000000000000     0.294986958539887
3 13
    -0.174985212933159     0.181649230630990     0.280281510200293
    -0.566878804338916    -0.447724571577580    -0.369866697970502
    -0.024094549548132     0.292442411044317    -0.084445137053534
3 14
     0.296487034490939     0.000000000000000     0.000000000000000
     0.000000000000000     0.296487034490939    -0.000000000000000
     0.000000000000000    -0.000000000000000     0.679291795863810
3 15
    -0.174985212940303    -0.181649230630990    -0.280281510200293
     0.566878804328188    -0.447724571570436    -0.369866697959478
     0.024094549559635     0.292442411044317    -0.084445137053534
3 16
     0.261783524708142     0.000000000000000     0.000000000000000
     0.000000000000000     0.261783524708142    -0.000000000000000
     0.000000000000000     0.000000000000000     0.647199931596334
3 17
    -0.212730433369239    -0.588671017501678     0.460454711550995
     0.159857017457210    -0.409979351141501    -0.057797559071611
    -0.265309831888309    -0.125354713515798    -0.084445137053534
3 18
    -0.212730433346085     0.588671017501678    -0.460454711550995
    -0.159857017464968    -0.409979351164654    -0.057797559053500
     0.265309831883378    -0.125354713515798    -0.084445137053534
3 19
    -0.546349030478648    -0.352471804310436     0.180173201350702
     0.396056230662604    -0.076360754032091    -0.427664257031089
    -0.241215282328674     0.167087697528519    -0.084445137053534
3 20
    -0.546349030464784     0.352471804310436    -0.180173201350702
    -0.396056230644118    -0.076360754045955    -0.427664257024002
     0.241215282335246     0.167087697528519    -0.084445137053534
3 21
     1.040638589462419     0.000000000000000     0.000000000000000
     0.000000000000000     1.040638589462419     0.000000000000000
     0.000000000000000    -0.000000000000000     0.294986958539887
3 22
    -0.174985212933159     0.181649230630990    -0.280281510200293
    -0.566878804338916    -0.447724571577580     0.369866697970502
     0.024094549548132    -0.292442411044317    -0.084445137053534
3 23
     0.296487034490939     0.000000000000000     0.000000000000000
     0.000000000000000     0.296487034490939    -0.000000000000000
     0.000000000000000    -0.000000000000000     0.679291795863810
3 24
    -0.174985212940303    -0.181649230630990     0.280281510200293
     0.566878804328188    -0.447724571570435     0.369866697959478
    -0.024094549559635    -0.292442411044317    -0.084445137053534
3 25
     0.261783524708142     0.000000000000000    -0.000000000000000
     0.000000000000000     0.261783524708142     0.000000000000000
    -0.000000000000000     0.000000000000000     0.647199931596335
3 26
    -0.212730433369239    -0.588671017501678    -0.460454711550995
     0.159857017457210    -0.409979351141501     0.057797559071611
     0.265309831888309     0.125354713515798    -0.084445137053534
3 27
    -0.212730433346085     0.588671017501678     0.460454711550995
    -0.159857017464968    -0.409979351164654     0.057797559053500
    -0.265309831883378     0.125354713515798    -0.084445137053534
3 28
    -1.951529933648094     0.000000000000000     0.000000000000000
     0.000000000064275     1.316752032060166     0.861156904908111
     0.000000000019695     1.001426979632072    -0.225046688003888
3 29
    -2.507760363106502    -3.442962598392749     5.142558840335108
    -3.442962598329581     1.467830403021321     2.969057730696306
     5.775538238937864     3.334508556920619    -8.269387077161316
3 30
    -2.507760362971082     3.442962598392751    -5.142558840335111
     3.442962598485950     1.467830402885902     2.969057730898574
    -5.775538238806708     3.334508556920619    -8.269387077161316
3 31
    -1.607733420032111    -0.356668554646124     0.871881467969102
    -0.356668554639580    -1.195888047944355     0.503381000217358
    -0.052254384259155    -0.030169082817953    -0.566957590059976
3 32
    -1.607733420018082     0.356668554646123    -0.871881467969102
     0.356668554655779    -1.195888047958384     0.503381000251651
     0.052254384257968    -0.030169082817953    -0.566957590059977
3 33
     3.455625785949814    -0.000000000000001    -0.000000000000003
    -0.000000000156370    -4.495555746034992    -5.938115461594877
    -0.000000000131155    -6.669017113841238    -8.269387077161314
3 34
     0.499681540605270    -1.415207604513862     0.745783756293178
    -1.415207604552171    -1.134459442193197    -0.430578452468722
     0.867261204388540    -0.500713489816036    -0.225046688003888
3 35
    -0.989965361914507    -0.000000000000001    -0.000000000000000
    -0.000000000016199    -1.813656106061959    -1.006762000469009
     0.000000000001187     0.060338165635906    -0.566957590059976
3 36
     0.499681540660934     1.415207604513862    -0.745783756293179
     1.415207604487896    -1.134459442248860    -0.430578452439389
    -0.867261204408235    -0.500713489816036    -0.225046688003888
3 37
    -0.000035309665891    -0.000000000000000     0.000000000000000
     0.000000000000001    -0.000000990364338    -0.000000000000000
    -0.000000000000000     0.000000000000000     0.000303294405969
3 38
    -0.000210900515155    -0.001457428251159     0.000000000000000
    -0.001457428251132     0.001471992671169    -0.000000000000000