phonopy:
  version: "2.19.1"
  frequency_unit_conversion_factor: 15.633302
  symmetry_tolerance: 1.00000e-05

space_group:
  type: "P6_3/mmc"
  number: 194
  Hall_symbol: "-P 6c 2c"

supercell_matrix:
- [   3,   0,   0 ]
- [   0,   3,   0 ]
- [   0,   0,   3 ]

primitive_cell:
  lattice:
  - [     2.858646112469096,     0.000000000000000,     0.000000000000000 ] # a
  - [    -1.429323056185861,     2.475660153822466,     0.000000000000000 ] # b
  - [     0.000000000000000,     0.000000000000000,     4.518997558100215 ] # c
  points:
  - symbol: Au # 1
    coordinates: [  0.353557717765639,  0.680149589631008,  0.263482922963893 ]
    mass: 196.966569
  - symbol: Au # 2
    coordinates: [  0.686891051091519,  0.346816256296778,  0.763482922963894 ]
    mass: 196.966569
  reciprocal_lattice: # without 2pi
  - [     0.349815948059507,     0.201966331772541,     0.000000000000000 ] # a*
  - [     0.000000000000000,     0.403932663558842,     0.000000000000000 ] # b*
  - [     0.000000000000000,     0.000000000000000,     0.221288015127939 ] # c*

unit_cell:
  lattice:
  - [     2.858646112469096,     0.000000000000000,     0.000000000000000 ] # a
  - [    -1.429323056185861,     2.475660153822466,     0.000000000000000 ] # b
  - [     0.000000000000000,     0.000000000000000,     4.518997558100215 ] # c
  points:
  - symbol: Au # 1
    coordinates: [  0.353557717765639,  0.680149589631008,  0.263482922963893 ]
    mass: 196.966569
    reduced_to: 1
  - symbol: Au # 2
    coordinates: [  0.686891051091519,  0.346816256296778,  0.763482922963894 ]
    mass: 196.966569
    reduced_to: 2

supercell:
  lattice:
  - [     8.575938337407289,     0.000000000000000,     0.000000000000000 ] # a
  - [    -4.287969168557582,     7.426980461467398,     0.000000000000000 ] # b
  - [     0.000000000000000,     0.000000000000000,    13.556992674300645 ] # c
  points:
  - symbol: Au # 1
    coordinates: [  0.117852572588546,  0.226716529877003,  0.087827640987964 ]
    mass: 196.966569
    reduced_to: 1
  - symbol: Au # 2
    coordinates: [  0.451185905921880,  0.226716529877003,  0.087827640987964 ]
    mass: 196.966569
    reduced_to: 1
  - symbol: Au # 3
    coordinates: [  0.784519239255213,  0.226716529877003,  0.087827640987964 ]
    mass: 196.966569
    reduced_to: 1
  - symbol: Au # 4
    coordinates: [  0.117852572588546,  0.560049863210336,  0.087827640987964 ]
    mass: 196.966569
    reduced_to: 1
  - symbol: Au # 5
    coordinates: [  0.451185905921880,  0.560049863210336,  0.087827640987964 ]
    mass: 196.966569
    reduced_to: 1
  - symbol: Au # 6
    coordinates: [  0.784519239255213,  0.560049863210336,  0.087827640987964 ]
    mass: 196.966569
    reduced_to: 1
  - symbol: Au # 7
    coordinates: [  0.117852572588546,  0.893383196543669,  0.087827640987964 ]
    mass: 196.966569
    reduced_to: 1
  - symbol: Au # 8
    coordinates: [  0.451185905921880,  0.893383196543669,  0.087827640987964 ]
    mass: 196.966569
    reduced_to: 1
  - symbol: Au # 9
    coordinates: [  0.784519239255213,  0.893383196543669,  0.087827640987964 ]
    mass: 196.966569
    reduced_to: 1
  - symbol: Au # 10
    coordinates: [  0.117852572588546,  0.226716529877003,  0.421160974321298 ]
    mass: 196.966569
    reduced_to: 1
  - symbol: Au # 11
    coordinates: [  0.451185905921880,  0.226716529877003,  0.421160974321298 ]
    mass: 196.966569
    reduced_to: 1
  - symbol: Au # 12
    coordinates: [  0.784519239255213,  0.226716529877003,  0.421160974321298 ]
    mass: 196.966569
    reduced_to: 1
  - symbol: Au # 13
    coordinates: [  0.117852572588546,  0.560049863210336,  0.421160974321298 ]
    mass: 196.966569
    reduced_to: 1
  - symbol: Au # 14
    coordinates: [  0.451185905921880,  0.560049863210336,  0.421160974321298 ]
    mass: 196.966569
    reduced_to: 1
  - symbol: Au # 15
    coordinates: [  0.784519239255213,  0.560049863210336,  0.421160974321298 ]
    mass: 196.966569
    reduced_to: 1
  - symbol: Au # 16
    coordinates: [  0.117852572588546,  0.893383196543669,  0.421160974321298 ]
    mass: 196.966569
    reduced_to: 1
  - symbol: Au # 17
    coordinates: [  0.451185905921880,  0.893383196543669,  0.421160974321298 ]
    mass: 196.966569
    reduced_to: 1
  - symbol: Au # 18
    coordinates: [  0.784519239255213,  0.893383196543669,  0.421160974321298 ]
    mass: 196.966569
    reduced_to: 1
  - symbol: Au # 19
    coordinates: [  0.117852572588546,  0.226716529877003,  0.754494307654631 ]
    mass: 196.966569
    reduced_to: 1
  - symbol: Au # 20
    coordinates: [  0.451185905921880,  0.226716529877003,  0.754494307654631 ]
    mass: 196.966569
    reduced_to: 1
  - symbol: Au # 21
    coordinates: [  0.784519239255213,  0.226716529877003,  0.754494307654631 ]
    mass: 196.966569
    reduced_to: 1
  - symbol: Au # 22
    coordinates: [  0.117852572588546,  0.560049863210336,  0.754494307654631 ]
    mass: 196.966569
    reduced_to: 1
  - symbol: Au # 23
    coordinates: [  0.451185905921880,  0.560049863210336,  0.754494307654631 ]
    mass: 196.966569
    reduced_to: 1
  - symbol: Au # 24
    coordinates: [  0.784519239255213,  0.560049863210336,  0.754494307654631 ]
    mass: 196.966569
    reduced_to: 1
  - symbol: Au # 25
    coordinates: [  0.117852572588546,  0.893383196543669,  0.754494307654631 ]
    mass: 196.966569
    reduced_to: 1
  - symbol: Au # 26
    coordinates: [  0.451185905921880,  0.893383196543669,  0.754494307654631 ]
    mass: 196.966569
    reduced_to: 1
  - symbol: Au # 27
    coordinates: [  0.784519239255213,  0.893383196543669,  0.754494307654631 ]
    mass: 196.966569
    reduced_to: 1
  - symbol: Au # 28
    coordinates: [  0.228963683697173,  0.115605418765593,  0.254494307654631 ]
    mass: 196.966569
    reduced_to: 28
  - symbol: Au # 29
    coordinates: [  0.562297017030506,  0.115605418765593,  0.254494307654631 ]
    mass: 196.966569
    reduced_to: 28
  - symbol: Au # 30
    coordinates: [  0.895630350363840,  0.115605418765593,  0.254494307654631 ]
    mass: 196.966569
    reduced_to: 28
  - symbol: Au # 31
    coordinates: [  0.228963683697173,  0.448938752098926,  0.254494307654631 ]
    mass: 196.966569
    reduced_to: 28
  - symbol: Au # 32
    coordinates: [  0.562297017030506,  0.448938752098926,  0.254494307654631 ]
    mass: 196.966569
    reduced_to: 28
  - symbol: Au # 33
    coordinates: [  0.895630350363840,  0.448938752098926,  0.254494307654631 ]
    mass: 196.966569
    reduced_to: 28
  - symbol: Au # 34
    coordinates: [  0.228963683697173,  0.782272085432259,  0.254494307654631 ]
    mass: 196.966569
    reduced_to: 28
  - symbol: Au # 35
    coordinates: [  0.562297017030506,  0.782272085432259,  0.254494307654631 ]
    mass: 196.966569
    reduced_to: 28
  - symbol: Au # 36
    coordinates: [  0.895630350363840,  0.782272085432259,  0.254494307654631 ]
    mass: 196.966569
    reduced_to: 28
  - symbol: Au # 37
    coordinates: [  0.228963683697173,  0.115605418765593,  0.587827640987964 ]
    mass: 196.966569
    reduced_to: 28
  - symbol: Au # 38
    coordinates: [  0.562297017030506,  0.115605418765593,  0.587827640987964 ]
    mass: 196.966569
    reduced_to: 28
  - symbol: Au # 39
    coordinates: [  0.895630350363840,  0.115605418765593,  0.587827640987964 ]
    mass: 196.966569
    reduced_to: 28
  - symbol: Au # 40
    coordinates: [  0.228963683697173,  0.448938752098926,  0.587827640987964 ]
    mass: 196.966569
    reduced_to: 28
  - symbol: Au # 41
    coordinates: [  0.562297017030506,  0.448938752098926,  0.587827640987964 ]
    mass: 196.966569
    reduced_to: 28
  - symbol: Au # 42
    coordinates: [  0.895630350363840,  0.448938752098926,  0.587827640987964 ]
    mass: 196.966569
    reduced_to: 28
  - symbol: Au # 43
    coordinates: [  0.228963683697173,  0.782272085432259,  0.587827640987964 ]
    mass: 196.966569
    reduced_to: 28
  - symbol: Au # 44
    coordinates: [  0.562297017030506,  0.782272085432259,  0.587827640987964 ]
    mass: 196.966569
    reduced_to: 28
  - symbol: Au # 45
    coordinates: [  0.895630350363840,  0.782272085432259,  0.587827640987964 ]
    mass: 196.966569
    reduced_to: 28
  - symbol: Au # 46
    coordinates: [  0.228963683697173,  0.115605418765593,  0.921160974321298 ]
    mass: 196.966569
    reduced_to: 28
  - symbol: Au # 47
    coordinates: [  0.562297017030506,  0.115605418765593,  0.921160974321298 ]
    mass: 196.966569
    reduced_to: 28
  - symbol: Au # 48
    coordinates: [  0.895630350363840,  0.115605418765593,  0.921160974321298 ]
    mass: 196.966569
    reduced_to: 28
  - symbol: Au # 49
    coordinates: [  0.228963683697173,  0.448938752098926,  0.921160974321298 ]
    mass: 196.966569
    reduced_to: 28
  - symbol: Au # 50
    coordinates: [  0.562297017030506,  0.448938752098926,  0.921160974321298 ]
    mass: 196.966569
    reduced_to: 28
  - symbol: Au # 51
    coordinates: [  0.895630350363840,  0.448938752098926,  0.921160974321298 ]
    mass: 196.966569
    reduced_to: 28
  - symbol: Au # 52
    coordinates: [  0.228963683697173,  0.782272085432259,  0.921160974321298 ]
    mass: 196.966569
    reduced_to: 28
  - symbol: Au # 53
    coordinates: [  0.562297017030506,  0.782272085432259,  0.921160974321298 ]
    mass: 196.966569
    reduced_to: 28
  - symbol: Au # 54
    coordinates: [  0.895630350363840,  0.782272085432259,  0.921160974321298 ]
    mass: 196.966569
    reduced_to: 28

displacements:
- atom:    1
  displacement:
    [   0.0534600105775523,  0.0000000000000000,  0.0845105157305764 ]
