phonopy:
  version: "2.34.0"
  frequency_unit_conversion_factor: 15.633302
  symmetry_tolerance: 1.00000e-05
  configuration:
    atom_name: "Ti"
    dim: "3 3 3"
    fc_symmetry: ".TRUE."
    force_constants: "WRITE"
    full_force_constants: ".TRUE."
    band: "0.0 0.0 0.0  0.5 0.0 0.0  0.3333333 0.3333333 0.0  0.0 0.0 0.0  0.0 0.0 0.5  0.5 0.0 0.5  0.3333333 0.3333333 0.5  0.0 0.0 0.5"
    band_points: "101"
    band_labels: "Gamma M K Gamma A L H A"
    band_connection: ".TRUE."

physical_unit:
  atomic_mass: "AMU"
  length: "angstrom"
  force: "eV/angstrom"
  force_constants: "eV/angstrom^2"

space_group:
  type: "P6/mmm"
  number: 191
  Hall_symbol: "-P 6 2"

supercell_matrix:
- [   3,   0,   0 ]
- [   0,   3,   0 ]
- [   0,   0,   3 ]

primitive_cell:
  lattice:
  - [     4.576976731500000,     0.000000000000000,     0.000000000000000 ] # a
  - [    -2.288488437500000,     3.963778106900000,     0.000000000000000 ] # b
  - [    -0.000000039874792,    -0.000000021466442,     2.830184470400000 ] # c
  points:
  - symbol: Ti # 1
    coordinates: [  0.000000001148496,  0.999999998909857,  0.999999998568834 ]
    mass: 47.867000
  - symbol: Ti # 2
    coordinates: [  0.333333325249983,  0.666666671964614,  0.499999996289994 ]
    mass: 47.867000
  - symbol: Ti # 3
    coordinates: [  0.666666673602031,  0.333333329111744,  0.500000005158674 ]
    mass: 47.867000
  reciprocal_lattice: # without 2pi
  - [     0.218484833693326,     0.126142281982411,     0.000000004035024 ] # a*
  - [     0.000000000000000,     0.252284556055052,     0.000000001913533 ] # b*
  - [     0.000000000000000,     0.000000000000000,     0.353333858785066 ] # c*

unit_cell:
  lattice:
  - [     4.576976731500000,     0.000000000000000,     0.000000000000000 ] # a
  - [    -2.288488437500000,     3.963778106900000,     0.000000000000000 ] # b
  - [    -0.000000039874792,    -0.000000021466442,     2.830184470400000 ] # c
  points:
  - symbol: Ti # 1
    coordinates: [  0.000000001148496, -0.000000001090143, -0.000000001431166 ]
    mass: 47.867000
    reduced_to: 1
  - symbol: Ti # 2
    coordinates: [  0.333333325249983,  0.666666671964614,  0.499999996289994 ]
    mass: 47.867000
    reduced_to: 2
  - symbol: Ti # 3
    coordinates: [  0.666666673602031,  0.333333329111744,  0.500000005158674 ]
    mass: 47.867000
    reduced_to: 3

supercell:
  lattice:
  - [    13.730930194500001,     0.000000000000000,     0.000000000000000 ] # a
  - [    -6.865465312500000,    11.891334320700000,     0.000000000000000 ] # b
  - [    -0.000000119624377,    -0.000000064399327,     8.490553411200001 ] # c
  points:
  - symbol: Ti # 1
    coordinates: [  0.000000000382832,  0.999999999636619,  0.999999999522945 ]
    mass: 47.867000
    reduced_to: 1
  - symbol: Ti # 2
    coordinates: [  0.333333333716165,  0.999999999636619,  0.999999999522945 ]
    mass: 47.867000
    reduced_to: 1
  - symbol: Ti # 3
    coordinates: [  0.666666667049499,  0.999999999636619,  0.999999999522945 ]
    mass: 47.867000
    reduced_to: 1
  - symbol: Ti # 4
    coordinates: [  0.000000000382832,  0.333333332969952,  0.999999999522945 ]
    mass: 47.867000
    reduced_to: 1
  - symbol: Ti # 5
    coordinates: [  0.333333333716165,  0.333333332969952,  0.999999999522945 ]
    mass: 47.867000
    reduced_to: 1
  - symbol: Ti # 6
    coordinates: [  0.666666667049499,  0.333333332969952,  0.999999999522945 ]
    mass: 47.867000
    reduced_to: 1
  - symbol: Ti # 7
    coordinates: [  0.000000000382832,  0.666666666303286,  0.999999999522945 ]
    mass: 47.867000
    reduced_to: 1
  - symbol: Ti # 8
    coordinates: [  0.333333333716165,  0.666666666303286,  0.999999999522945 ]
    mass: 47.867000
    reduced_to: 1
  - symbol: Ti # 9
    coordinates: [  0.666666667049499,  0.666666666303286,  0.999999999522945 ]
    mass: 47.867000
    reduced_to: 1
  - symbol: Ti # 10
    coordinates: [  0.000000000382832,  0.999999999636619,  0.333333332856278 ]
    mass: 47.867000
    reduced_to: 1
  - symbol: Ti # 11
    coordinates: [  0.333333333716165,  0.999999999636619,  0.333333332856278 ]
    mass: 47.867000
    reduced_to: 1
  - symbol: Ti # 12
    coordinates: [  0.666666667049499,  0.999999999636619,  0.333333332856278 ]
    mass: 47.867000
    reduced_to: 1
  - symbol: Ti # 13
    coordinates: [  0.000000000382832,  0.333333332969952,  0.333333332856278 ]
    mass: 47.867000
    reduced_to: 1
  - symbol: Ti # 14
    coordinates: [  0.333333333716165,  0.333333332969952,  0.333333332856278 ]
    mass: 47.867000
    reduced_to: 1
  - symbol: Ti # 15
    coordinates: [  0.666666667049499,  0.333333332969952,  0.333333332856278 ]
    mass: 47.867000
    reduced_to: 1
  - symbol: Ti # 16
    coordinates: [  0.000000000382832,  0.666666666303286,  0.333333332856278 ]
    mass: 47.867000
    reduced_to: 1
  - symbol: Ti # 17
    coordinates: [  0.333333333716165,  0.666666666303286,  0.333333332856278 ]
    mass: 47.867000
    reduced_to: 1
  - symbol: Ti # 18
    coordinates: [  0.666666667049499,  0.666666666303286,  0.333333332856278 ]
    mass: 47.867000
    reduced_to: 1
  - symbol: Ti # 19
    coordinates: [  0.000000000382832,  0.999999999636619,  0.666666666189611 ]
    mass: 47.867000
    reduced_to: 1
  - symbol: Ti # 20
    coordinates: [  0.333333333716165,  0.999999999636619,  0.666666666189611 ]
    mass: 47.867000
    reduced_to: 1
  - symbol: Ti # 21
    coordinates: [  0.666666667049499,  0.999999999636619,  0.666666666189611 ]
    mass: 47.867000
    reduced_to: 1
  - symbol: Ti # 22
    coordinates: [  0.000000000382832,  0.333333332969952,  0.666666666189611 ]
    mass: 47.867000
    reduced_to: 1
  - symbol: Ti # 23
    coordinates: [  0.333333333716165,  0.333333332969952,  0.666666666189611 ]
    mass: 47.867000
    reduced_to: 1
  - symbol: Ti # 24
    coordinates: [  0.666666667049499,  0.333333332969952,  0.666666666189611 ]
    mass: 47.867000
    reduced_to: 1
  - symbol: Ti # 25
    coordinates: [  0.000000000382832,  0.666666666303286,  0.666666666189611 ]
    mass: 47.867000
    reduced_to: 1
  - symbol: Ti # 26
    coordinates: [  0.333333333716165,  0.666666666303286,  0.666666666189611 ]
    mass: 47.867000
    reduced_to: 1
  - symbol: Ti # 27
    coordinates: [  0.666666667049499,  0.666666666303286,  0.666666666189611 ]
    mass: 47.867000
    reduced_to: 1
  - symbol: Ti # 28
    coordinates: [  0.111111108416661,  0.222222223988205,  0.166666665429998 ]
    mass: 47.867000
    reduced_to: 28
  - symbol: Ti # 29
    coordinates: [  0.444444441749994,  0.222222223988205,  0.166666665429998 ]
    mass: 47.867000
    reduced_to: 28
  - symbol: Ti # 30
    coordinates: [  0.777777775083328,  0.222222223988205,  0.166666665429998 ]
    mass: 47.867000
    reduced_to: 28
  - symbol: Ti # 31
    coordinates: [  0.111111108416661,  0.555555557321538,  0.166666665429998 ]
    mass: 47.867000
    reduced_to: 28
  - symbol: Ti # 32
    coordinates: [  0.444444441749994,  0.555555557321538,  0.166666665429998 ]
    mass: 47.867000
    reduced_to: 28
  - symbol: Ti # 33
    coordinates: [  0.777777775083328,  0.555555557321538,  0.166666665429998 ]
    mass: 47.867000
    reduced_to: 28
  - symbol: Ti # 34
    coordinates: [  0.111111108416661,  0.888888890654871,  0.166666665429998 ]
    mass: 47.867000
    reduced_to: 28
  - symbol: Ti # 35
    coordinates: [  0.444444441749994,  0.888888890654871,  0.166666665429998 ]
    mass: 47.867000
    reduced_to: 28
  - symbol: Ti # 36
    coordinates: [  0.777777775083328,  0.888888890654871,  0.166666665429998 ]
    mass: 47.867000
    reduced_to: 28
  - symbol: Ti # 37
    coordinates: [  0.111111108416661,  0.222222223988205,  0.499999998763331 ]
    mass: 47.867000
    reduced_to: 28
  - symbol: Ti # 38
    coordinates: [  0.444444441749994,  0.222222223988205,  0.499999998763331 ]
    mass: 47.867000
    reduced_to: 28
  - symbol: Ti # 39
    coordinates: [  0.777777775083328,  0.222222223988205,  0.499999998763331 ]
    mass: 47.867000
    reduced_to: 28
  - symbol: Ti # 40
    coordinates: [  0.111111108416661,  0.555555557321538,  0.499999998763331 ]
    mass: 47.867000
    reduced_to: 28
  - symbol: Ti # 41
    coordinates: [  0.444444441749994,  0.555555557321538,  0.499999998763331 ]
    mass: 47.867000
    reduced_to: 28
  - symbol: Ti # 42
    coordinates: [  0.777777775083328,  0.555555557321538,  0.499999998763331 ]
    mass: 47.867000
    reduced_to: 28
  - symbol: Ti # 43
    coordinates: [  0.111111108416661,  0.888888890654871,  0.499999998763331 ]
    mass: 47.867000
    reduced_to: 28
  - symbol: Ti # 44
    coordinates: [  0.444444441749994,  0.888888890654871,  0.499999998763331 ]
    mass: 47.867000
    reduced_to: 28
  - symbol: Ti # 45
    coordinates: [  0.777777775083328,  0.888888890654871,  0.499999998763331 ]
    mass: 47.867000
    reduced_to: 28
  - symbol: Ti # 46
    coordinates: [  0.111111108416661,  0.222222223988205,  0.833333332096665 ]
    mass: 47.867000
    reduced_to: 28
  - symbol: Ti # 47
    coordinates: [  0.444444441749994,  0.222222223988205,  0.833333332096665 ]
    mass: 47.867000
    reduced_to: 28
  - symbol: Ti # 48
    coordinates: [  0.777777775083328,  0.222222223988205,  0.833333332096665 ]
    mass: 47.867000
    reduced_to: 28
  - symbol: Ti # 49
    coordinates: [  0.111111108416661,  0.555555557321538,  0.833333332096665 ]
    mass: 47.867000
    reduced_to: 28
  - symbol: Ti # 50
    coordinates: [  0.444444441749994,  0.555555557321538,  0.833333332096665 ]
    mass: 47.867000
    reduced_to: 28
  - symbol: Ti # 51
    coordinates: [  0.777777775083328,  0.555555557321538,  0.833333332096665 ]
    mass: 47.867000
    reduced_to: 28
  - symbol: Ti # 52
    coordinates: [  0.111111108416661,  0.888888890654871,  0.833333332096665 ]
    mass: 47.867000
    reduced_to: 28
  - symbol: Ti # 53
    coordinates: [  0.444444441749994,  0.888888890654871,  0.833333332096665 ]
    mass: 47.867000
    reduced_to: 28
  - symbol: Ti # 54
    coordinates: [  0.777777775083328,  0.888888890654871,  0.833333332096665 ]
    mass: 47.867000
    reduced_to: 28
  - symbol: Ti # 55
    coordinates: [  0.222222224534010,  0.111111109703914,  0.166666668386225 ]
    mass: 47.867000
    reduced_to: 55
  - symbol: Ti # 56
    coordinates: [  0.555555557867344,  0.111111109703914,  0.166666668386225 ]
    mass: 47.867000
    reduced_to: 55
  - symbol: Ti # 57
    coordinates: [  0.888888891200677,  0.111111109703914,  0.166666668386225 ]
    mass: 47.867000
    reduced_to: 55
  - symbol: Ti # 58
    coordinates: [  0.222222224534010,  0.444444443037248,  0.166666668386225 ]
    mass: 47.867000
    reduced_to: 55
  - symbol: Ti # 59
    coordinates: [  0.555555557867344,  0.444444443037248,  0.166666668386225 ]
    mass: 47.867000
    reduced_to: 55
  - symbol: Ti # 60
    coordinates: [  0.888888891200677,  0.444444443037248,  0.166666668386225 ]
    mass: 47.867000
    reduced_to: 55
  - symbol: Ti # 61
    coordinates: [  0.222222224534010,  0.777777776370581,  0.166666668386225 ]
    mass: 47.867000
    reduced_to: 55
  - symbol: Ti # 62
    coordinates: [  0.555555557867344,  0.777777776370581,  0.166666668386225 ]
    mass: 47.867000
    reduced_to: 55
  - symbol: Ti # 63
    coordinates: [  0.888888891200677,  0.777777776370581,  0.166666668386225 ]
    mass: 47.867000
    reduced_to: 55
  - symbol: Ti # 64
    coordinates: [  0.222222224534010,  0.111111109703914,  0.500000001719558 ]
    mass: 47.867000
    reduced_to: 55
  - symbol: Ti # 65
    coordinates: [  0.555555557867344,  0.111111109703914,  0.500000001719558 ]
    mass: 47.867000
    reduced_to: 55
  - symbol: Ti # 66
    coordinates: [  0.888888891200677,  0.111111109703914,  0.500000001719558 ]
    mass: 47.867000
    reduced_to: 55
  - symbol: Ti # 67
    coordinates: [  0.222222224534010,  0.444444443037248,  0.500000001719558 ]
    mass: 47.867000
    reduced_to: 55
  - symbol: Ti # 68
    coordinates: [  0.555555557867344,  0.444444443037248,  0.500000001719558 ]
    mass: 47.867000
    reduced_to: 55
  - symbol: Ti # 69
    coordinates: [  0.888888891200677,  0.444444443037248,  0.500000001719558 ]
    mass: 47.867000
    reduced_to: 55
  - symbol: Ti # 70
    coordinates: [  0.222222224534010,  0.777777776370581,  0.500000001719558 ]
    mass: 47.867000
    reduced_to: 55
  - symbol: Ti # 71
    coordinates: [  0.555555557867344,  0.777777776370581,  0.500000001719558 ]
    mass: 47.867000
    reduced_to: 55
  - symbol: Ti # 72
    coordinates: [  0.888888891200677,  0.777777776370581,  0.500000001719558 ]
    mass: 47.867000
    reduced_to: 55
  - symbol: Ti # 73
    coordinates: [  0.222222224534010,  0.111111109703914,  0.833333335052891 ]
    mass: 47.867000
    reduced_to: 55
  - symbol: Ti # 74
    coordinates: [  0.555555557867344,  0.111111109703914,  0.833333335052891 ]
    mass: 47.867000
    reduced_to: 55
  - symbol: Ti # 75
    coordinates: [  0.888888891200677,  0.111111109703914,  0.833333335052891 ]
    mass: 47.867000
    reduced_to: 55
  - symbol: Ti # 76
    coordinates: [  0.222222224534010,  0.444444443037248,  0.833333335052891 ]
    mass: 47.867000
    reduced_to: 55
  - symbol: Ti # 77
    coordinates: [  0.555555557867344,  0.444444443037248,  0.833333335052891 ]
    mass: 47.867000
    reduced_to: 55
  - symbol: Ti # 78
    coordinates: [  0.888888891200677,  0.444444443037248,  0.833333335052891 ]
    mass: 47.867000
    reduced_to: 55
  - symbol: Ti # 79
    coordinates: [  0.222222224534010,  0.777777776370581,  0.833333335052891 ]
    mass: 47.867000
    reduced_to: 55
  - symbol: Ti # 80
    coordinates: [  0.555555557867344,  0.777777776370581,  0.833333335052891 ]
    mass: 47.867000
    reduced_to: 55
  - symbol: Ti # 81
    coordinates: [  0.888888891200677,  0.777777776370581,  0.833333335052891 ]
    mass: 47.867000
    reduced_to: 55
