# LAMMPS data file written by OVITO Basic 3.15.4

2 atoms
1 atom types

0.0 2.9357319231 xlo xhi
0.0 2.5424184241 ylo yhi
0.0 4.64085615 zlo zhi
-1.4678659615 0.0 0.0 xy xz yz

Masses

1 47.867  # Ti

Atoms  # atomic

1 1 9.9920072216e-15 1.6949456161 1.1602140375
2 1 1.4678659615 0.847472808 3.4806421125
